;
;   File g6.5Ocore_cooh_petim.itp  was generated
;   By user: sairam (1000)
;   On host: sairam
;   At date: Tue. July  2 15:54:16 2024
;
;   This is a standalone topology file
;
;   Created by:
;   ParmEd:       amb2gro_top_gro.py, VERSION 3.4.1
;   Executable:   amb2gro_top_gro.py
;   Library dir:  /usr/local/gromacs/share/gromacs/top
;   Command line:
;     ./amb2gro_top_gro.py -p g6.5Ocore_cooh_petim.prmtop -c g6.5Ocore_cooh_petim.inpcrd -t g6.5Ocore_cooh_petim.itp -g g6.5Ocore_cooh_petim.gro -b g6.5Ocore_cooh_petim.pdb
;

;[ defaults ]
;; nbfunc        comb-rule       gen-pairs       fudgeLJ fudgeQQ
;1               2               yes             0.5          0.83333333  
;
;[ atomtypes ]
;; name    at.num    mass    charge ptype  sigma      epsilon
;os             8  16.000000  0.00000000  A     0.30000123        0.71128
;c3             6  12.010000  0.00000000  A     0.33996695      0.4577296
;h1             1   1.008000  0.00000000  A      0.2471353      0.0656888
;hc             1   1.008000  0.00000000  A     0.26495328      0.0656888
;n3             7  14.010000  0.00000000  A     0.32499985        0.71128
;c              6  12.010000  0.00000000  A     0.33996695       0.359824
;o              8  16.000000  0.00000000  A     0.29599219        0.87864
;oh             8  16.000000  0.00000000  A     0.30664734      0.8803136
;ho             1   1.008000  0.00000000  A              0              0


[ moleculetype ]
; Name            nrexcl
g6.5Ocore_cooh_petim          3

[ atoms ]
;   nr       type  resnr residue  atom   cgnr    charge       mass  typeB    chargeB      massB
; residue    1 aaa rtp aaa q -0.0
    1         os      1    aaa     O1      1 -0.43807400  16.000000   ; qtot -0.438074
    2         c3      1    aaa     C1      2 0.04509800  12.010000   ; qtot -0.392976
    3         h1      1    aaa     H1      3 0.04771700   1.008000   ; qtot -0.345259
    4         h1      1    aaa     H2      4 0.04771700   1.008000   ; qtot -0.297542
    5         c3      1    aaa     C2      5 0.04509800  12.010000   ; qtot -0.252444
    6         h1      1    aaa     H3      6 0.04771700   1.008000   ; qtot -0.204727
    7         h1      1    aaa     H4      7 0.04771700   1.008000   ; qtot -0.157010
    8         c3      1    aaa     C3      8 0.05658600  12.010000   ; qtot -0.100424
    9         hc      1    aaa     H5      9 0.04933800   1.008000   ; qtot -0.051086
   10         hc      1    aaa     H6     10 0.04933800   1.008000   ; qtot -0.001748
   11         c3      1    aaa     C4     11 0.05658600  12.010000   ; qtot 0.054838
   12         hc      1    aaa     H7     12 0.04933800   1.008000   ; qtot 0.104176
   13         hc      1    aaa     H8     13 0.04933800   1.008000   ; qtot 0.153514
   14         c3      1    aaa     C5     14 0.00989700  12.010000   ; qtot 0.163411
   15         h1      1    aaa     H9     15 0.04845500   1.008000   ; qtot 0.211866
   16         h1      1    aaa    H10     16 0.04845500   1.008000   ; qtot 0.260321
   17         c3      1    aaa     C6     17 0.00989700  12.010000   ; qtot 0.270218
   18         h1      1    aaa    H11     18 0.04845500   1.008000   ; qtot 0.318673
   19         h1      1    aaa    H12     19 0.04845500   1.008000   ; qtot 0.367128
   20         n3      1    aaa     N1     20 -0.59936800  14.010000   ; qtot -0.232240
   21         n3      1    aaa     N2     21 -0.59936800  14.010000   ; qtot -0.831608
   22         c3      1    aaa     C7     22 0.08030200  12.010000   ; qtot -0.751306
   23         h1      1    aaa    H13     23 0.05071600   1.008000   ; qtot -0.700590
   24         h1      1    aaa    H14     24 0.05071600   1.008000   ; qtot -0.649874
   25         c3      1    aaa     C8     25 0.08030200  12.010000   ; qtot -0.569572
   26         h1      1    aaa    H15     26 0.05071600   1.008000   ; qtot -0.518856
   27         h1      1    aaa    H16     27 0.05071600   1.008000   ; qtot -0.468140
   28         c3      1    aaa     C9     28 0.08030200  12.010000   ; qtot -0.387838
   29         h1      1    aaa    H17     29 0.05071600   1.008000   ; qtot -0.337122
   30         h1      1    aaa    H18     30 0.05071600   1.008000   ; qtot -0.286406
   31         c3      1    aaa    C10     31 0.08030200  12.010000   ; qtot -0.206104
   32         h1      1    aaa    H19     32 0.05071600   1.008000   ; qtot -0.155388
   33         h1      1    aaa    H20     33 0.05071600   1.008000   ; qtot -0.104672
   34         c3      1    aaa    C11     34 0.10287800  12.010000   ; qtot -0.001794
   35         hc      1    aaa    H21     35 0.06787400   1.008000   ; qtot 0.066080
   36         hc      1    aaa    H22     36 0.06787400   1.008000   ; qtot 0.133954
   37         c3      1    aaa    C12     37 0.10287800  12.010000   ; qtot 0.236832
   38         hc      1    aaa    H23     38 0.06787400   1.008000   ; qtot 0.304706
   39         hc      1    aaa    H24     39 0.06787400   1.008000   ; qtot 0.372580
   40         c3      1    aaa    C13     40 0.10287800  12.010000   ; qtot 0.475458
   41         hc      1    aaa    H25     41 0.06787400   1.008000   ; qtot 0.543332
   42         hc      1    aaa    H26     42 0.06787400   1.008000   ; qtot 0.611206
   43         c3      1    aaa    C14     43 0.10287800  12.010000   ; qtot 0.714084
   44         hc      1    aaa    H27     44 0.06787400   1.008000   ; qtot 0.781958
   45         hc      1    aaa    H28     45 0.06787400   1.008000   ; qtot 0.849832
   46         c3      1    aaa    C15     46 -0.72585200  12.010000   ; qtot 0.123980
   47         h1      1    aaa    H29     47 0.25669700   1.008000   ; qtot 0.380677
   48         h1      1    aaa    H30     48 0.25669700   1.008000   ; qtot 0.637374
   49         c3      1    aaa    C16     49 -0.72585200  12.010000   ; qtot -0.088478
   50         h1      1    aaa    H31     50 0.25669700   1.008000   ; qtot 0.168219
   51         h1      1    aaa    H32     51 0.25669700   1.008000   ; qtot 0.424916
   52         c3      1    aaa    C17     52 -0.72585200  12.010000   ; qtot -0.300936
   53         h1      1    aaa    H33     53 0.25669700   1.008000   ; qtot -0.044239
   54         h1      1    aaa    H34     54 0.25669700   1.008000   ; qtot 0.212458
   55         c3      1    aaa    C18     55 -0.72585200  12.010000   ; qtot -0.513394
   56         h1      1    aaa    H35     56 0.25669700   1.008000   ; qtot -0.256697
   57         h1      1    aaa    H36     57 0.25669700   1.008000   ; qtot -0.000000
; residue    2 bbb rtp bbb q -0.0
   58         n3      2    bbb     N1     58 -0.59685800  14.010000   ; qtot -0.596858
   59         c3      2    bbb     C1     59 0.10137000  12.010000   ; qtot -0.495488
   60         h1      2    bbb     H1     60 0.04411300   1.008000   ; qtot -0.451375
   61         h1      2    bbb     H2     61 0.04411300   1.008000   ; qtot -0.407262
   62         c3      2    bbb     C2     62 0.10137000  12.010000   ; qtot -0.305892
   63         h1      2    bbb     H3     63 0.04411300   1.008000   ; qtot -0.261779
   64         h1      2    bbb     H4     64 0.04411300   1.008000   ; qtot -0.217666
   65         c3      2    bbb     C3     65 -0.00195300  12.010000   ; qtot -0.219619
   66         h1      2    bbb     H5     66 0.05064400   1.008000   ; qtot -0.168975
   67         h1      2    bbb     H6     67 0.05064400   1.008000   ; qtot -0.118331
   68         c3      2    bbb     C4     68 -0.01612100  12.010000   ; qtot -0.134452
   69         hc      2    bbb     H7     69 0.04936100   1.008000   ; qtot -0.085091
   70         hc      2    bbb     H8     70 0.04936100   1.008000   ; qtot -0.035730
   71         c3      2    bbb     C5     71 0.11363000  12.010000   ; qtot 0.077900
   72         hc      2    bbb     H9     72 0.06265900   1.008000   ; qtot 0.140559
   73         hc      2    bbb    H10     73 0.06265900   1.008000   ; qtot 0.203218
   74         c3      2    bbb     C6     74 0.11363000  12.010000   ; qtot 0.316848
   75         hc      2    bbb    H11     75 0.06265900   1.008000   ; qtot 0.379507
   76         hc      2    bbb    H12     76 0.06265900   1.008000   ; qtot 0.442166
   77         c3      2    bbb     C7     77 0.05858200  12.010000   ; qtot 0.500748
   78         h1      2    bbb    H13     78 0.06123400   1.008000   ; qtot 0.561982
   79         h1      2    bbb    H14     79 0.06123400   1.008000   ; qtot 0.623216
   80         c3      2    bbb     C8     80 -0.72423400  12.010000   ; qtot -0.101018
   81         h1      2    bbb    H15     81 0.25637600   1.008000   ; qtot 0.155358
   82         h1      2    bbb    H16     82 0.25637600   1.008000   ; qtot 0.411734
   83         c3      2    bbb     C9     83 -0.72423400  12.010000   ; qtot -0.312500
   84         h1      2    bbb    H17     84 0.25637600   1.008000   ; qtot -0.056124
   85         h1      2    bbb    H18     85 0.25637600   1.008000   ; qtot 0.200252
   86         os      2    bbb     O1     86 -0.20025300  16.000000   ; qtot -0.000001
; residue    3 bbb rtp bbb q -0.0
   87         n3      3    bbb     N1     87 -0.59685800  14.010000   ; qtot -0.596859
   88         c3      3    bbb     C1     88 0.10137000  12.010000   ; qtot -0.495489
   89         h1      3    bbb     H1     89 0.04411300   1.008000   ; qtot -0.451376
   90         h1      3    bbb     H2     90 0.04411300   1.008000   ; qtot -0.407263
   91         c3      3    bbb     C2     91 0.10137000  12.010000   ; qtot -0.305893
   92         h1      3    bbb     H3     92 0.04411300   1.008000   ; qtot -0.261780
   93         h1      3    bbb     H4     93 0.04411300   1.008000   ; qtot -0.217667
   94         c3      3    bbb     C3     94 -0.00195300  12.010000   ; qtot -0.219620
   95         h1      3    bbb     H5     95 0.05064400   1.008000   ; qtot -0.168976
   96         h1      3    bbb     H6     96 0.05064400   1.008000   ; qtot -0.118332
   97         c3      3    bbb     C4     97 -0.01612100  12.010000   ; qtot -0.134453
   98         hc      3    bbb     H7     98 0.04936100   1.008000   ; qtot -0.085092
   99         hc      3    bbb     H8     99 0.04936100   1.008000   ; qtot -0.035731
  100         c3      3    bbb     C5    100 0.11363000  12.010000   ; qtot 0.077899
  101         hc      3    bbb     H9    101 0.06265900   1.008000   ; qtot 0.140558
  102         hc      3    bbb    H10    102 0.06265900   1.008000   ; qtot 0.203217
  103         c3      3    bbb     C6    103 0.11363000  12.010000   ; qtot 0.316847
  104         hc      3    bbb    H11    104 0.06265900   1.008000   ; qtot 0.379506
  105         hc      3    bbb    H12    105 0.06265900   1.008000   ; qtot 0.442165
  106         c3      3    bbb     C7    106 0.05858200  12.010000   ; qtot 0.500747
  107         h1      3    bbb    H13    107 0.06123400   1.008000   ; qtot 0.561981
  108         h1      3    bbb    H14    108 0.06123400   1.008000   ; qtot 0.623215
  109         c3      3    bbb     C8    109 -0.72423400  12.010000   ; qtot -0.101019
  110         h1      3    bbb    H15    110 0.25637600   1.008000   ; qtot 0.155357
  111         h1      3    bbb    H16    111 0.25637600   1.008000   ; qtot 0.411733
  112         c3      3    bbb     C9    112 -0.72423400  12.010000   ; qtot -0.312501
  113         h1      3    bbb    H17    113 0.25637600   1.008000   ; qtot -0.056125
  114         h1      3    bbb    H18    114 0.25637600   1.008000   ; qtot 0.200251
  115         os      3    bbb     O1    115 -0.20025300  16.000000   ; qtot -0.000002
; residue    4 bbb rtp bbb q -0.0
  116         n3      4    bbb     N1    116 -0.59685800  14.010000   ; qtot -0.596860
  117         c3      4    bbb     C1    117 0.10137000  12.010000   ; qtot -0.495490
  118         h1      4    bbb     H1    118 0.04411300   1.008000   ; qtot -0.451377
  119         h1      4    bbb     H2    119 0.04411300   1.008000   ; qtot -0.407264
  120         c3      4    bbb     C2    120 0.10137000  12.010000   ; qtot -0.305894
  121         h1      4    bbb     H3    121 0.04411300   1.008000   ; qtot -0.261781
  122         h1      4    bbb     H4    122 0.04411300   1.008000   ; qtot -0.217668
  123         c3      4    bbb     C3    123 -0.00195300  12.010000   ; qtot -0.219621
  124         h1      4    bbb     H5    124 0.05064400   1.008000   ; qtot -0.168977
  125         h1      4    bbb     H6    125 0.05064400   1.008000   ; qtot -0.118333
  126         c3      4    bbb     C4    126 -0.01612100  12.010000   ; qtot -0.134454
  127         hc      4    bbb     H7    127 0.04936100   1.008000   ; qtot -0.085093
  128         hc      4    bbb     H8    128 0.04936100   1.008000   ; qtot -0.035732
  129         c3      4    bbb     C5    129 0.11363000  12.010000   ; qtot 0.077898
  130         hc      4    bbb     H9    130 0.06265900   1.008000   ; qtot 0.140557
  131         hc      4    bbb    H10    131 0.06265900   1.008000   ; qtot 0.203216
  132         c3      4    bbb     C6    132 0.11363000  12.010000   ; qtot 0.316846
  133         hc      4    bbb    H11    133 0.06265900   1.008000   ; qtot 0.379505
  134         hc      4    bbb    H12    134 0.06265900   1.008000   ; qtot 0.442164
  135         c3      4    bbb     C7    135 0.05858200  12.010000   ; qtot 0.500746
  136         h1      4    bbb    H13    136 0.06123400   1.008000   ; qtot 0.561980
  137         h1      4    bbb    H14    137 0.06123400   1.008000   ; qtot 0.623214
  138         c3      4    bbb     C8    138 -0.72423400  12.010000   ; qtot -0.101020
  139         h1      4    bbb    H15    139 0.25637600   1.008000   ; qtot 0.155356
  140         h1      4    bbb    H16    140 0.25637600   1.008000   ; qtot 0.411732
  141         c3      4    bbb     C9    141 -0.72423400  12.010000   ; qtot -0.312502
  142         h1      4    bbb    H17    142 0.25637600   1.008000   ; qtot -0.056126
  143         h1      4    bbb    H18    143 0.25637600   1.008000   ; qtot 0.200250
  144         os      4    bbb     O1    144 -0.20025300  16.000000   ; qtot -0.000003
; residue    5 bbb rtp bbb q -0.0
  145         n3      5    bbb     N1    145 -0.59685800  14.010000   ; qtot -0.596861
  146         c3      5    bbb     C1    146 0.10137000  12.010000   ; qtot -0.495491
  147         h1      5    bbb     H1    147 0.04411300   1.008000   ; qtot -0.451378
  148         h1      5    bbb     H2    148 0.04411300   1.008000   ; qtot -0.407265
  149         c3      5    bbb     C2    149 0.10137000  12.010000   ; qtot -0.305895
  150         h1      5    bbb     H3    150 0.04411300   1.008000   ; qtot -0.261782
  151         h1      5    bbb     H4    151 0.04411300   1.008000   ; qtot -0.217669
  152         c3      5    bbb     C3    152 -0.00195300  12.010000   ; qtot -0.219622
  153         h1      5    bbb     H5    153 0.05064400   1.008000   ; qtot -0.168978
  154         h1      5    bbb     H6    154 0.05064400   1.008000   ; qtot -0.118334
  155         c3      5    bbb     C4    155 -0.01612100  12.010000   ; qtot -0.134455
  156         hc      5    bbb     H7    156 0.04936100   1.008000   ; qtot -0.085094
  157         hc      5    bbb     H8    157 0.04936100   1.008000   ; qtot -0.035733
  158         c3      5    bbb     C5    158 0.11363000  12.010000   ; qtot 0.077897
  159         hc      5    bbb     H9    159 0.06265900   1.008000   ; qtot 0.140556
  160         hc      5    bbb    H10    160 0.06265900   1.008000   ; qtot 0.203215
  161         c3      5    bbb     C6    161 0.11363000  12.010000   ; qtot 0.316845
  162         hc      5    bbb    H11    162 0.06265900   1.008000   ; qtot 0.379504
  163         hc      5    bbb    H12    163 0.06265900   1.008000   ; qtot 0.442163
  164         c3      5    bbb     C7    164 0.05858200  12.010000   ; qtot 0.500745
  165         h1      5    bbb    H13    165 0.06123400   1.008000   ; qtot 0.561979
  166         h1      5    bbb    H14    166 0.06123400   1.008000   ; qtot 0.623213
  167         c3      5    bbb     C8    167 -0.72423400  12.010000   ; qtot -0.101021
  168         h1      5    bbb    H15    168 0.25637600   1.008000   ; qtot 0.155355
  169         h1      5    bbb    H16    169 0.25637600   1.008000   ; qtot 0.411731
  170         c3      5    bbb     C9    170 -0.72423400  12.010000   ; qtot -0.312503
  171         h1      5    bbb    H17    171 0.25637600   1.008000   ; qtot -0.056127
  172         h1      5    bbb    H18    172 0.25637600   1.008000   ; qtot 0.200249
  173         os      5    bbb     O1    173 -0.20025300  16.000000   ; qtot -0.000004
; residue    6 bbb rtp bbb q -0.0
  174         n3      6    bbb     N1    174 -0.59685800  14.010000   ; qtot -0.596862
  175         c3      6    bbb     C1    175 0.10137000  12.010000   ; qtot -0.495492
  176         h1      6    bbb     H1    176 0.04411300   1.008000   ; qtot -0.451379
  177         h1      6    bbb     H2    177 0.04411300   1.008000   ; qtot -0.407266
  178         c3      6    bbb     C2    178 0.10137000  12.010000   ; qtot -0.305896
  179         h1      6    bbb     H3    179 0.04411300   1.008000   ; qtot -0.261783
  180         h1      6    bbb     H4    180 0.04411300   1.008000   ; qtot -0.217670
  181         c3      6    bbb     C3    181 -0.00195300  12.010000   ; qtot -0.219623
  182         h1      6    bbb     H5    182 0.05064400   1.008000   ; qtot -0.168979
  183         h1      6    bbb     H6    183 0.05064400   1.008000   ; qtot -0.118335
  184         c3      6    bbb     C4    184 -0.01612100  12.010000   ; qtot -0.134456
  185         hc      6    bbb     H7    185 0.04936100   1.008000   ; qtot -0.085095
  186         hc      6    bbb     H8    186 0.04936100   1.008000   ; qtot -0.035734
  187         c3      6    bbb     C5    187 0.11363000  12.010000   ; qtot 0.077896
  188         hc      6    bbb     H9    188 0.06265900   1.008000   ; qtot 0.140555
  189         hc      6    bbb    H10    189 0.06265900   1.008000   ; qtot 0.203214
  190         c3      6    bbb     C6    190 0.11363000  12.010000   ; qtot 0.316844
  191         hc      6    bbb    H11    191 0.06265900   1.008000   ; qtot 0.379503
  192         hc      6    bbb    H12    192 0.06265900   1.008000   ; qtot 0.442162
  193         c3      6    bbb     C7    193 0.05858200  12.010000   ; qtot 0.500744
  194         h1      6    bbb    H13    194 0.06123400   1.008000   ; qtot 0.561978
  195         h1      6    bbb    H14    195 0.06123400   1.008000   ; qtot 0.623212
  196         c3      6    bbb     C8    196 -0.72423400  12.010000   ; qtot -0.101022
  197         h1      6    bbb    H15    197 0.25637600   1.008000   ; qtot 0.155354
  198         h1      6    bbb    H16    198 0.25637600   1.008000   ; qtot 0.411730
  199         c3      6    bbb     C9    199 -0.72423400  12.010000   ; qtot -0.312504
  200         h1      6    bbb    H17    200 0.25637600   1.008000   ; qtot -0.056128
  201         h1      6    bbb    H18    201 0.25637600   1.008000   ; qtot 0.200248
  202         os      6    bbb     O1    202 -0.20025300  16.000000   ; qtot -0.000005
; residue    7 bbb rtp bbb q -0.0
  203         n3      7    bbb     N1    203 -0.59685800  14.010000   ; qtot -0.596863
  204         c3      7    bbb     C1    204 0.10137000  12.010000   ; qtot -0.495493
  205         h1      7    bbb     H1    205 0.04411300   1.008000   ; qtot -0.451380
  206         h1      7    bbb     H2    206 0.04411300   1.008000   ; qtot -0.407267
  207         c3      7    bbb     C2    207 0.10137000  12.010000   ; qtot -0.305897
  208         h1      7    bbb     H3    208 0.04411300   1.008000   ; qtot -0.261784
  209         h1      7    bbb     H4    209 0.04411300   1.008000   ; qtot -0.217671
  210         c3      7    bbb     C3    210 -0.00195300  12.010000   ; qtot -0.219624
  211         h1      7    bbb     H5    211 0.05064400   1.008000   ; qtot -0.168980
  212         h1      7    bbb     H6    212 0.05064400   1.008000   ; qtot -0.118336
  213         c3      7    bbb     C4    213 -0.01612100  12.010000   ; qtot -0.134457
  214         hc      7    bbb     H7    214 0.04936100   1.008000   ; qtot -0.085096
  215         hc      7    bbb     H8    215 0.04936100   1.008000   ; qtot -0.035735
  216         c3      7    bbb     C5    216 0.11363000  12.010000   ; qtot 0.077895
  217         hc      7    bbb     H9    217 0.06265900   1.008000   ; qtot 0.140554
  218         hc      7    bbb    H10    218 0.06265900   1.008000   ; qtot 0.203213
  219         c3      7    bbb     C6    219 0.11363000  12.010000   ; qtot 0.316843
  220         hc      7    bbb    H11    220 0.06265900   1.008000   ; qtot 0.379502
  221         hc      7    bbb    H12    221 0.06265900   1.008000   ; qtot 0.442161
  222         c3      7    bbb     C7    222 0.05858200  12.010000   ; qtot 0.500743
  223         h1      7    bbb    H13    223 0.06123400   1.008000   ; qtot 0.561977
  224         h1      7    bbb    H14    224 0.06123400   1.008000   ; qtot 0.623211
  225         c3      7    bbb     C8    225 -0.72423400  12.010000   ; qtot -0.101023
  226         h1      7    bbb    H15    226 0.25637600   1.008000   ; qtot 0.155353
  227         h1      7    bbb    H16    227 0.25637600   1.008000   ; qtot 0.411729
  228         c3      7    bbb     C9    228 -0.72423400  12.010000   ; qtot -0.312505
  229         h1      7    bbb    H17    229 0.25637600   1.008000   ; qtot -0.056129
  230         h1      7    bbb    H18    230 0.25637600   1.008000   ; qtot 0.200247
  231         os      7    bbb     O1    231 -0.20025300  16.000000   ; qtot -0.000006
; residue    8 bbb rtp bbb q -0.0
  232         n3      8    bbb     N1    232 -0.59685800  14.010000   ; qtot -0.596864
  233         c3      8    bbb     C1    233 0.10137000  12.010000   ; qtot -0.495494
  234         h1      8    bbb     H1    234 0.04411300   1.008000   ; qtot -0.451381
  235         h1      8    bbb     H2    235 0.04411300   1.008000   ; qtot -0.407268
  236         c3      8    bbb     C2    236 0.10137000  12.010000   ; qtot -0.305898
  237         h1      8    bbb     H3    237 0.04411300   1.008000   ; qtot -0.261785
  238         h1      8    bbb     H4    238 0.04411300   1.008000   ; qtot -0.217672
  239         c3      8    bbb     C3    239 -0.00195300  12.010000   ; qtot -0.219625
  240         h1      8    bbb     H5    240 0.05064400   1.008000   ; qtot -0.168981
  241         h1      8    bbb     H6    241 0.05064400   1.008000   ; qtot -0.118337
  242         c3      8    bbb     C4    242 -0.01612100  12.010000   ; qtot -0.134458
  243         hc      8    bbb     H7    243 0.04936100   1.008000   ; qtot -0.085097
  244         hc      8    bbb     H8    244 0.04936100   1.008000   ; qtot -0.035736
  245         c3      8    bbb     C5    245 0.11363000  12.010000   ; qtot 0.077894
  246         hc      8    bbb     H9    246 0.06265900   1.008000   ; qtot 0.140553
  247         hc      8    bbb    H10    247 0.06265900   1.008000   ; qtot 0.203212
  248         c3      8    bbb     C6    248 0.11363000  12.010000   ; qtot 0.316842
  249         hc      8    bbb    H11    249 0.06265900   1.008000   ; qtot 0.379501
  250         hc      8    bbb    H12    250 0.06265900   1.008000   ; qtot 0.442160
  251         c3      8    bbb     C7    251 0.05858200  12.010000   ; qtot 0.500742
  252         h1      8    bbb    H13    252 0.06123400   1.008000   ; qtot 0.561976
  253         h1      8    bbb    H14    253 0.06123400   1.008000   ; qtot 0.623210
  254         c3      8    bbb     C8    254 -0.72423400  12.010000   ; qtot -0.101024
  255         h1      8    bbb    H15    255 0.25637600   1.008000   ; qtot 0.155352
  256         h1      8    bbb    H16    256 0.25637600   1.008000   ; qtot 0.411728
  257         c3      8    bbb     C9    257 -0.72423400  12.010000   ; qtot -0.312506
  258         h1      8    bbb    H17    258 0.25637600   1.008000   ; qtot -0.056130
  259         h1      8    bbb    H18    259 0.25637600   1.008000   ; qtot 0.200246
  260         os      8    bbb     O1    260 -0.20025300  16.000000   ; qtot -0.000007
; residue    9 bbb rtp bbb q -0.0
  261         n3      9    bbb     N1    261 -0.59685800  14.010000   ; qtot -0.596865
  262         c3      9    bbb     C1    262 0.10137000  12.010000   ; qtot -0.495495
  263         h1      9    bbb     H1    263 0.04411300   1.008000   ; qtot -0.451382
  264         h1      9    bbb     H2    264 0.04411300   1.008000   ; qtot -0.407269
  265         c3      9    bbb     C2    265 0.10137000  12.010000   ; qtot -0.305899
  266         h1      9    bbb     H3    266 0.04411300   1.008000   ; qtot -0.261786
  267         h1      9    bbb     H4    267 0.04411300   1.008000   ; qtot -0.217673
  268         c3      9    bbb     C3    268 -0.00195300  12.010000   ; qtot -0.219626
  269         h1      9    bbb     H5    269 0.05064400   1.008000   ; qtot -0.168982
  270         h1      9    bbb     H6    270 0.05064400   1.008000   ; qtot -0.118338
  271         c3      9    bbb     C4    271 -0.01612100  12.010000   ; qtot -0.134459
  272         hc      9    bbb     H7    272 0.04936100   1.008000   ; qtot -0.085098
  273         hc      9    bbb     H8    273 0.04936100   1.008000   ; qtot -0.035737
  274         c3      9    bbb     C5    274 0.11363000  12.010000   ; qtot 0.077893
  275         hc      9    bbb     H9    275 0.06265900   1.008000   ; qtot 0.140552
  276         hc      9    bbb    H10    276 0.06265900   1.008000   ; qtot 0.203211
  277         c3      9    bbb     C6    277 0.11363000  12.010000   ; qtot 0.316841
  278         hc      9    bbb    H11    278 0.06265900   1.008000   ; qtot 0.379500
  279         hc      9    bbb    H12    279 0.06265900   1.008000   ; qtot 0.442159
  280         c3      9    bbb     C7    280 0.05858200  12.010000   ; qtot 0.500741
  281         h1      9    bbb    H13    281 0.06123400   1.008000   ; qtot 0.561975
  282         h1      9    bbb    H14    282 0.06123400   1.008000   ; qtot 0.623209
  283         c3      9    bbb     C8    283 -0.72423400  12.010000   ; qtot -0.101025
  284         h1      9    bbb    H15    284 0.25637600   1.008000   ; qtot 0.155351
  285         h1      9    bbb    H16    285 0.25637600   1.008000   ; qtot 0.411727
  286         c3      9    bbb     C9    286 -0.72423400  12.010000   ; qtot -0.312507
  287         h1      9    bbb    H17    287 0.25637600   1.008000   ; qtot -0.056131
  288         h1      9    bbb    H18    288 0.25637600   1.008000   ; qtot 0.200245
  289         os      9    bbb     O1    289 -0.20025300  16.000000   ; qtot -0.000008
; residue   10 bbb rtp bbb q -0.0
  290         n3     10    bbb     N1    290 -0.59685800  14.010000   ; qtot -0.596866
  291         c3     10    bbb     C1    291 0.10137000  12.010000   ; qtot -0.495496
  292         h1     10    bbb     H1    292 0.04411300   1.008000   ; qtot -0.451383
  293         h1     10    bbb     H2    293 0.04411300   1.008000   ; qtot -0.407270
  294         c3     10    bbb     C2    294 0.10137000  12.010000   ; qtot -0.305900
  295         h1     10    bbb     H3    295 0.04411300   1.008000   ; qtot -0.261787
  296         h1     10    bbb     H4    296 0.04411300   1.008000   ; qtot -0.217674
  297         c3     10    bbb     C3    297 -0.00195300  12.010000   ; qtot -0.219627
  298         h1     10    bbb     H5    298 0.05064400   1.008000   ; qtot -0.168983
  299         h1     10    bbb     H6    299 0.05064400   1.008000   ; qtot -0.118339
  300         c3     10    bbb     C4    300 -0.01612100  12.010000   ; qtot -0.134460
  301         hc     10    bbb     H7    301 0.04936100   1.008000   ; qtot -0.085099
  302         hc     10    bbb     H8    302 0.04936100   1.008000   ; qtot -0.035738
  303         c3     10    bbb     C5    303 0.11363000  12.010000   ; qtot 0.077892
  304         hc     10    bbb     H9    304 0.06265900   1.008000   ; qtot 0.140551
  305         hc     10    bbb    H10    305 0.06265900   1.008000   ; qtot 0.203210
  306         c3     10    bbb     C6    306 0.11363000  12.010000   ; qtot 0.316840
  307         hc     10    bbb    H11    307 0.06265900   1.008000   ; qtot 0.379499
  308         hc     10    bbb    H12    308 0.06265900   1.008000   ; qtot 0.442158
  309         c3     10    bbb     C7    309 0.05858200  12.010000   ; qtot 0.500740
  310         h1     10    bbb    H13    310 0.06123400   1.008000   ; qtot 0.561974
  311         h1     10    bbb    H14    311 0.06123400   1.008000   ; qtot 0.623208
  312         c3     10    bbb     C8    312 -0.72423400  12.010000   ; qtot -0.101026
  313         h1     10    bbb    H15    313 0.25637600   1.008000   ; qtot 0.155350
  314         h1     10    bbb    H16    314 0.25637600   1.008000   ; qtot 0.411726
  315         c3     10    bbb     C9    315 -0.72423400  12.010000   ; qtot -0.312508
  316         h1     10    bbb    H17    316 0.25637600   1.008000   ; qtot -0.056132
  317         h1     10    bbb    H18    317 0.25637600   1.008000   ; qtot 0.200244
  318         os     10    bbb     O1    318 -0.20025300  16.000000   ; qtot -0.000009
; residue   11 bbb rtp bbb q -0.0
  319         n3     11    bbb     N1    319 -0.59685800  14.010000   ; qtot -0.596867
  320         c3     11    bbb     C1    320 0.10137000  12.010000   ; qtot -0.495497
  321         h1     11    bbb     H1    321 0.04411300   1.008000   ; qtot -0.451384
  322         h1     11    bbb     H2    322 0.04411300   1.008000   ; qtot -0.407271
  323         c3     11    bbb     C2    323 0.10137000  12.010000   ; qtot -0.305901
  324         h1     11    bbb     H3    324 0.04411300   1.008000   ; qtot -0.261788
  325         h1     11    bbb     H4    325 0.04411300   1.008000   ; qtot -0.217675
  326         c3     11    bbb     C3    326 -0.00195300  12.010000   ; qtot -0.219628
  327         h1     11    bbb     H5    327 0.05064400   1.008000   ; qtot -0.168984
  328         h1     11    bbb     H6    328 0.05064400   1.008000   ; qtot -0.118340
  329         c3     11    bbb     C4    329 -0.01612100  12.010000   ; qtot -0.134461
  330         hc     11    bbb     H7    330 0.04936100   1.008000   ; qtot -0.085100
  331         hc     11    bbb     H8    331 0.04936100   1.008000   ; qtot -0.035739
  332         c3     11    bbb     C5    332 0.11363000  12.010000   ; qtot 0.077891
  333         hc     11    bbb     H9    333 0.06265900   1.008000   ; qtot 0.140550
  334         hc     11    bbb    H10    334 0.06265900   1.008000   ; qtot 0.203209
  335         c3     11    bbb     C6    335 0.11363000  12.010000   ; qtot 0.316839
  336         hc     11    bbb    H11    336 0.06265900   1.008000   ; qtot 0.379498
  337         hc     11    bbb    H12    337 0.06265900   1.008000   ; qtot 0.442157
  338         c3     11    bbb     C7    338 0.05858200  12.010000   ; qtot 0.500739
  339         h1     11    bbb    H13    339 0.06123400   1.008000   ; qtot 0.561973
  340         h1     11    bbb    H14    340 0.06123400   1.008000   ; qtot 0.623207
  341         c3     11    bbb     C8    341 -0.72423400  12.010000   ; qtot -0.101027
  342         h1     11    bbb    H15    342 0.25637600   1.008000   ; qtot 0.155349
  343         h1     11    bbb    H16    343 0.25637600   1.008000   ; qtot 0.411725
  344         c3     11    bbb     C9    344 -0.72423400  12.010000   ; qtot -0.312509
  345         h1     11    bbb    H17    345 0.25637600   1.008000   ; qtot -0.056133
  346         h1     11    bbb    H18    346 0.25637600   1.008000   ; qtot 0.200243
  347         os     11    bbb     O1    347 -0.20025300  16.000000   ; qtot -0.000010
; residue   12 bbb rtp bbb q -0.0
  348         n3     12    bbb     N1    348 -0.59685800  14.010000   ; qtot -0.596868
  349         c3     12    bbb     C1    349 0.10137000  12.010000   ; qtot -0.495498
  350         h1     12    bbb     H1    350 0.04411300   1.008000   ; qtot -0.451385
  351         h1     12    bbb     H2    351 0.04411300   1.008000   ; qtot -0.407272
  352         c3     12    bbb     C2    352 0.10137000  12.010000   ; qtot -0.305902
  353         h1     12    bbb     H3    353 0.04411300   1.008000   ; qtot -0.261789
  354         h1     12    bbb     H4    354 0.04411300   1.008000   ; qtot -0.217676
  355         c3     12    bbb     C3    355 -0.00195300  12.010000   ; qtot -0.219629
  356         h1     12    bbb     H5    356 0.05064400   1.008000   ; qtot -0.168985
  357         h1     12    bbb     H6    357 0.05064400   1.008000   ; qtot -0.118341
  358         c3     12    bbb     C4    358 -0.01612100  12.010000   ; qtot -0.134462
  359         hc     12    bbb     H7    359 0.04936100   1.008000   ; qtot -0.085101
  360         hc     12    bbb     H8    360 0.04936100   1.008000   ; qtot -0.035740
  361         c3     12    bbb     C5    361 0.11363000  12.010000   ; qtot 0.077890
  362         hc     12    bbb     H9    362 0.06265900   1.008000   ; qtot 0.140549
  363         hc     12    bbb    H10    363 0.06265900   1.008000   ; qtot 0.203208
  364         c3     12    bbb     C6    364 0.11363000  12.010000   ; qtot 0.316838
  365         hc     12    bbb    H11    365 0.06265900   1.008000   ; qtot 0.379497
  366         hc     12    bbb    H12    366 0.06265900   1.008000   ; qtot 0.442156
  367         c3     12    bbb     C7    367 0.05858200  12.010000   ; qtot 0.500738
  368         h1     12    bbb    H13    368 0.06123400   1.008000   ; qtot 0.561972
  369         h1     12    bbb    H14    369 0.06123400   1.008000   ; qtot 0.623206
  370         c3     12    bbb     C8    370 -0.72423400  12.010000   ; qtot -0.101028
  371         h1     12    bbb    H15    371 0.25637600   1.008000   ; qtot 0.155348
  372         h1     12    bbb    H16    372 0.25637600   1.008000   ; qtot 0.411724
  373         c3     12    bbb     C9    373 -0.72423400  12.010000   ; qtot -0.312510
  374         h1     12    bbb    H17    374 0.25637600   1.008000   ; qtot -0.056134
  375         h1     12    bbb    H18    375 0.25637600   1.008000   ; qtot 0.200242
  376         os     12    bbb     O1    376 -0.20025300  16.000000   ; qtot -0.000011
; residue   13 bbb rtp bbb q -0.0
  377         n3     13    bbb     N1    377 -0.59685800  14.010000   ; qtot -0.596869
  378         c3     13    bbb     C1    378 0.10137000  12.010000   ; qtot -0.495499
  379         h1     13    bbb     H1    379 0.04411300   1.008000   ; qtot -0.451386
  380         h1     13    bbb     H2    380 0.04411300   1.008000   ; qtot -0.407273
  381         c3     13    bbb     C2    381 0.10137000  12.010000   ; qtot -0.305903
  382         h1     13    bbb     H3    382 0.04411300   1.008000   ; qtot -0.261790
  383         h1     13    bbb     H4    383 0.04411300   1.008000   ; qtot -0.217677
  384         c3     13    bbb     C3    384 -0.00195300  12.010000   ; qtot -0.219630
  385         h1     13    bbb     H5    385 0.05064400   1.008000   ; qtot -0.168986
  386         h1     13    bbb     H6    386 0.05064400   1.008000   ; qtot -0.118342
  387         c3     13    bbb     C4    387 -0.01612100  12.010000   ; qtot -0.134463
  388         hc     13    bbb     H7    388 0.04936100   1.008000   ; qtot -0.085102
  389         hc     13    bbb     H8    389 0.04936100   1.008000   ; qtot -0.035741
  390         c3     13    bbb     C5    390 0.11363000  12.010000   ; qtot 0.077889
  391         hc     13    bbb     H9    391 0.06265900   1.008000   ; qtot 0.140548
  392         hc     13    bbb    H10    392 0.06265900   1.008000   ; qtot 0.203207
  393         c3     13    bbb     C6    393 0.11363000  12.010000   ; qtot 0.316837
  394         hc     13    bbb    H11    394 0.06265900   1.008000   ; qtot 0.379496
  395         hc     13    bbb    H12    395 0.06265900   1.008000   ; qtot 0.442155
  396         c3     13    bbb     C7    396 0.05858200  12.010000   ; qtot 0.500737
  397         h1     13    bbb    H13    397 0.06123400   1.008000   ; qtot 0.561971
  398         h1     13    bbb    H14    398 0.06123400   1.008000   ; qtot 0.623205
  399         c3     13    bbb     C8    399 -0.72423400  12.010000   ; qtot -0.101029
  400         h1     13    bbb    H15    400 0.25637600   1.008000   ; qtot 0.155347
  401         h1     13    bbb    H16    401 0.25637600   1.008000   ; qtot 0.411723
  402         c3     13    bbb     C9    402 -0.72423400  12.010000   ; qtot -0.312511
  403         h1     13    bbb    H17    403 0.25637600   1.008000   ; qtot -0.056135
  404         h1     13    bbb    H18    404 0.25637600   1.008000   ; qtot 0.200241
  405         os     13    bbb     O1    405 -0.20025300  16.000000   ; qtot -0.000012
; residue   14 bbb rtp bbb q -0.0
  406         n3     14    bbb     N1    406 -0.59685800  14.010000   ; qtot -0.596870
  407         c3     14    bbb     C1    407 0.10137000  12.010000   ; qtot -0.495500
  408         h1     14    bbb     H1    408 0.04411300   1.008000   ; qtot -0.451387
  409         h1     14    bbb     H2    409 0.04411300   1.008000   ; qtot -0.407274
  410         c3     14    bbb     C2    410 0.10137000  12.010000   ; qtot -0.305904
  411         h1     14    bbb     H3    411 0.04411300   1.008000   ; qtot -0.261791
  412         h1     14    bbb     H4    412 0.04411300   1.008000   ; qtot -0.217678
  413         c3     14    bbb     C3    413 -0.00195300  12.010000   ; qtot -0.219631
  414         h1     14    bbb     H5    414 0.05064400   1.008000   ; qtot -0.168987
  415         h1     14    bbb     H6    415 0.05064400   1.008000   ; qtot -0.118343
  416         c3     14    bbb     C4    416 -0.01612100  12.010000   ; qtot -0.134464
  417         hc     14    bbb     H7    417 0.04936100   1.008000   ; qtot -0.085103
  418         hc     14    bbb     H8    418 0.04936100   1.008000   ; qtot -0.035742
  419         c3     14    bbb     C5    419 0.11363000  12.010000   ; qtot 0.077888
  420         hc     14    bbb     H9    420 0.06265900   1.008000   ; qtot 0.140547
  421         hc     14    bbb    H10    421 0.06265900   1.008000   ; qtot 0.203206
  422         c3     14    bbb     C6    422 0.11363000  12.010000   ; qtot 0.316836
  423         hc     14    bbb    H11    423 0.06265900   1.008000   ; qtot 0.379495
  424         hc     14    bbb    H12    424 0.06265900   1.008000   ; qtot 0.442154
  425         c3     14    bbb     C7    425 0.05858200  12.010000   ; qtot 0.500736
  426         h1     14    bbb    H13    426 0.06123400   1.008000   ; qtot 0.561970
  427         h1     14    bbb    H14    427 0.06123400   1.008000   ; qtot 0.623204
  428         c3     14    bbb     C8    428 -0.72423400  12.010000   ; qtot -0.101030
  429         h1     14    bbb    H15    429 0.25637600   1.008000   ; qtot 0.155346
  430         h1     14    bbb    H16    430 0.25637600   1.008000   ; qtot 0.411722
  431         c3     14    bbb     C9    431 -0.72423400  12.010000   ; qtot -0.312512
  432         h1     14    bbb    H17    432 0.25637600   1.008000   ; qtot -0.056136
  433         h1     14    bbb    H18    433 0.25637600   1.008000   ; qtot 0.200240
  434         os     14    bbb     O1    434 -0.20025300  16.000000   ; qtot -0.000013
; residue   15 bbb rtp bbb q -0.0
  435         n3     15    bbb     N1    435 -0.59685800  14.010000   ; qtot -0.596871
  436         c3     15    bbb     C1    436 0.10137000  12.010000   ; qtot -0.495501
  437         h1     15    bbb     H1    437 0.04411300   1.008000   ; qtot -0.451388
  438         h1     15    bbb     H2    438 0.04411300   1.008000   ; qtot -0.407275
  439         c3     15    bbb     C2    439 0.10137000  12.010000   ; qtot -0.305905
  440         h1     15    bbb     H3    440 0.04411300   1.008000   ; qtot -0.261792
  441         h1     15    bbb     H4    441 0.04411300   1.008000   ; qtot -0.217679
  442         c3     15    bbb     C3    442 -0.00195300  12.010000   ; qtot -0.219632
  443         h1     15    bbb     H5    443 0.05064400   1.008000   ; qtot -0.168988
  444         h1     15    bbb     H6    444 0.05064400   1.008000   ; qtot -0.118344
  445         c3     15    bbb     C4    445 -0.01612100  12.010000   ; qtot -0.134465
  446         hc     15    bbb     H7    446 0.04936100   1.008000   ; qtot -0.085104
  447         hc     15    bbb     H8    447 0.04936100   1.008000   ; qtot -0.035743
  448         c3     15    bbb     C5    448 0.11363000  12.010000   ; qtot 0.077887
  449         hc     15    bbb     H9    449 0.06265900   1.008000   ; qtot 0.140546
  450         hc     15    bbb    H10    450 0.06265900   1.008000   ; qtot 0.203205
  451         c3     15    bbb     C6    451 0.11363000  12.010000   ; qtot 0.316835
  452         hc     15    bbb    H11    452 0.06265900   1.008000   ; qtot 0.379494
  453         hc     15    bbb    H12    453 0.06265900   1.008000   ; qtot 0.442153
  454         c3     15    bbb     C7    454 0.05858200  12.010000   ; qtot 0.500735
  455         h1     15    bbb    H13    455 0.06123400   1.008000   ; qtot 0.561969
  456         h1     15    bbb    H14    456 0.06123400   1.008000   ; qtot 0.623203
  457         c3     15    bbb     C8    457 -0.72423400  12.010000   ; qtot -0.101031
  458         h1     15    bbb    H15    458 0.25637600   1.008000   ; qtot 0.155345
  459         h1     15    bbb    H16    459 0.25637600   1.008000   ; qtot 0.411721
  460         c3     15    bbb     C9    460 -0.72423400  12.010000   ; qtot -0.312513
  461         h1     15    bbb    H17    461 0.25637600   1.008000   ; qtot -0.056137
  462         h1     15    bbb    H18    462 0.25637600   1.008000   ; qtot 0.200239
  463         os     15    bbb     O1    463 -0.20025300  16.000000   ; qtot -0.000014
; residue   16 bbb rtp bbb q -0.0
  464         n3     16    bbb     N1    464 -0.59685800  14.010000   ; qtot -0.596872
  465         c3     16    bbb     C1    465 0.10137000  12.010000   ; qtot -0.495502
  466         h1     16    bbb     H1    466 0.04411300   1.008000   ; qtot -0.451389
  467         h1     16    bbb     H2    467 0.04411300   1.008000   ; qtot -0.407276
  468         c3     16    bbb     C2    468 0.10137000  12.010000   ; qtot -0.305906
  469         h1     16    bbb     H3    469 0.04411300   1.008000   ; qtot -0.261793
  470         h1     16    bbb     H4    470 0.04411300   1.008000   ; qtot -0.217680
  471         c3     16    bbb     C3    471 -0.00195300  12.010000   ; qtot -0.219633
  472         h1     16    bbb     H5    472 0.05064400   1.008000   ; qtot -0.168989
  473         h1     16    bbb     H6    473 0.05064400   1.008000   ; qtot -0.118345
  474         c3     16    bbb     C4    474 -0.01612100  12.010000   ; qtot -0.134466
  475         hc     16    bbb     H7    475 0.04936100   1.008000   ; qtot -0.085105
  476         hc     16    bbb     H8    476 0.04936100   1.008000   ; qtot -0.035744
  477         c3     16    bbb     C5    477 0.11363000  12.010000   ; qtot 0.077886
  478         hc     16    bbb     H9    478 0.06265900   1.008000   ; qtot 0.140545
  479         hc     16    bbb    H10    479 0.06265900   1.008000   ; qtot 0.203204
  480         c3     16    bbb     C6    480 0.11363000  12.010000   ; qtot 0.316834
  481         hc     16    bbb    H11    481 0.06265900   1.008000   ; qtot 0.379493
  482         hc     16    bbb    H12    482 0.06265900   1.008000   ; qtot 0.442152
  483         c3     16    bbb     C7    483 0.05858200  12.010000   ; qtot 0.500734
  484         h1     16    bbb    H13    484 0.06123400   1.008000   ; qtot 0.561968
  485         h1     16    bbb    H14    485 0.06123400   1.008000   ; qtot 0.623202
  486         c3     16    bbb     C8    486 -0.72423400  12.010000   ; qtot -0.101032
  487         h1     16    bbb    H15    487 0.25637600   1.008000   ; qtot 0.155344
  488         h1     16    bbb    H16    488 0.25637600   1.008000   ; qtot 0.411720
  489         c3     16    bbb     C9    489 -0.72423400  12.010000   ; qtot -0.312514
  490         h1     16    bbb    H17    490 0.25637600   1.008000   ; qtot -0.056138
  491         h1     16    bbb    H18    491 0.25637600   1.008000   ; qtot 0.200238
  492         os     16    bbb     O1    492 -0.20025300  16.000000   ; qtot -0.000015
; residue   17 bbb rtp bbb q -0.0
  493         n3     17    bbb     N1    493 -0.59685800  14.010000   ; qtot -0.596873
  494         c3     17    bbb     C1    494 0.10137000  12.010000   ; qtot -0.495503
  495         h1     17    bbb     H1    495 0.04411300   1.008000   ; qtot -0.451390
  496         h1     17    bbb     H2    496 0.04411300   1.008000   ; qtot -0.407277
  497         c3     17    bbb     C2    497 0.10137000  12.010000   ; qtot -0.305907
  498         h1     17    bbb     H3    498 0.04411300   1.008000   ; qtot -0.261794
  499         h1     17    bbb     H4    499 0.04411300   1.008000   ; qtot -0.217681
  500         c3     17    bbb     C3    500 -0.00195300  12.010000   ; qtot -0.219634
  501         h1     17    bbb     H5    501 0.05064400   1.008000   ; qtot -0.168990
  502         h1     17    bbb     H6    502 0.05064400   1.008000   ; qtot -0.118346
  503         c3     17    bbb     C4    503 -0.01612100  12.010000   ; qtot -0.134467
  504         hc     17    bbb     H7    504 0.04936100   1.008000   ; qtot -0.085106
  505         hc     17    bbb     H8    505 0.04936100   1.008000   ; qtot -0.035745
  506         c3     17    bbb     C5    506 0.11363000  12.010000   ; qtot 0.077885
  507         hc     17    bbb     H9    507 0.06265900   1.008000   ; qtot 0.140544
  508         hc     17    bbb    H10    508 0.06265900   1.008000   ; qtot 0.203203
  509         c3     17    bbb     C6    509 0.11363000  12.010000   ; qtot 0.316833
  510         hc     17    bbb    H11    510 0.06265900   1.008000   ; qtot 0.379492
  511         hc     17    bbb    H12    511 0.06265900   1.008000   ; qtot 0.442151
  512         c3     17    bbb     C7    512 0.05858200  12.010000   ; qtot 0.500733
  513         h1     17    bbb    H13    513 0.06123400   1.008000   ; qtot 0.561967
  514         h1     17    bbb    H14    514 0.06123400   1.008000   ; qtot 0.623201
  515         c3     17    bbb     C8    515 -0.72423400  12.010000   ; qtot -0.101033
  516         h1     17    bbb    H15    516 0.25637600   1.008000   ; qtot 0.155343
  517         h1     17    bbb    H16    517 0.25637600   1.008000   ; qtot 0.411719
  518         c3     17    bbb     C9    518 -0.72423400  12.010000   ; qtot -0.312515
  519         h1     17    bbb    H17    519 0.25637600   1.008000   ; qtot -0.056139
  520         h1     17    bbb    H18    520 0.25637600   1.008000   ; qtot 0.200237
  521         os     17    bbb     O1    521 -0.20025300  16.000000   ; qtot -0.000016
; residue   18 bbb rtp bbb q -0.0
  522         n3     18    bbb     N1    522 -0.59685800  14.010000   ; qtot -0.596874
  523         c3     18    bbb     C1    523 0.10137000  12.010000   ; qtot -0.495504
  524         h1     18    bbb     H1    524 0.04411300   1.008000   ; qtot -0.451391
  525         h1     18    bbb     H2    525 0.04411300   1.008000   ; qtot -0.407278
  526         c3     18    bbb     C2    526 0.10137000  12.010000   ; qtot -0.305908
  527         h1     18    bbb     H3    527 0.04411300   1.008000   ; qtot -0.261795
  528         h1     18    bbb     H4    528 0.04411300   1.008000   ; qtot -0.217682
  529         c3     18    bbb     C3    529 -0.00195300  12.010000   ; qtot -0.219635
  530         h1     18    bbb     H5    530 0.05064400   1.008000   ; qtot -0.168991
  531         h1     18    bbb     H6    531 0.05064400   1.008000   ; qtot -0.118347
  532         c3     18    bbb     C4    532 -0.01612100  12.010000   ; qtot -0.134468
  533         hc     18    bbb     H7    533 0.04936100   1.008000   ; qtot -0.085107
  534         hc     18    bbb     H8    534 0.04936100   1.008000   ; qtot -0.035746
  535         c3     18    bbb     C5    535 0.11363000  12.010000   ; qtot 0.077884
  536         hc     18    bbb     H9    536 0.06265900   1.008000   ; qtot 0.140543
  537         hc     18    bbb    H10    537 0.06265900   1.008000   ; qtot 0.203202
  538         c3     18    bbb     C6    538 0.11363000  12.010000   ; qtot 0.316832
  539         hc     18    bbb    H11    539 0.06265900   1.008000   ; qtot 0.379491
  540         hc     18    bbb    H12    540 0.06265900   1.008000   ; qtot 0.442150
  541         c3     18    bbb     C7    541 0.05858200  12.010000   ; qtot 0.500732
  542         h1     18    bbb    H13    542 0.06123400   1.008000   ; qtot 0.561966
  543         h1     18    bbb    H14    543 0.06123400   1.008000   ; qtot 0.623200
  544         c3     18    bbb     C8    544 -0.72423400  12.010000   ; qtot -0.101034
  545         h1     18    bbb    H15    545 0.25637600   1.008000   ; qtot 0.155342
  546         h1     18    bbb    H16    546 0.25637600   1.008000   ; qtot 0.411718
  547         c3     18    bbb     C9    547 -0.72423400  12.010000   ; qtot -0.312516
  548         h1     18    bbb    H17    548 0.25637600   1.008000   ; qtot -0.056140
  549         h1     18    bbb    H18    549 0.25637600   1.008000   ; qtot 0.200236
  550         os     18    bbb     O1    550 -0.20025300  16.000000   ; qtot -0.000017
; residue   19 bbb rtp bbb q -0.0
  551         n3     19    bbb     N1    551 -0.59685800  14.010000   ; qtot -0.596875
  552         c3     19    bbb     C1    552 0.10137000  12.010000   ; qtot -0.495505
  553         h1     19    bbb     H1    553 0.04411300   1.008000   ; qtot -0.451392
  554         h1     19    bbb     H2    554 0.04411300   1.008000   ; qtot -0.407279
  555         c3     19    bbb     C2    555 0.10137000  12.010000   ; qtot -0.305909
  556         h1     19    bbb     H3    556 0.04411300   1.008000   ; qtot -0.261796
  557         h1     19    bbb     H4    557 0.04411300   1.008000   ; qtot -0.217683
  558         c3     19    bbb     C3    558 -0.00195300  12.010000   ; qtot -0.219636
  559         h1     19    bbb     H5    559 0.05064400   1.008000   ; qtot -0.168992
  560         h1     19    bbb     H6    560 0.05064400   1.008000   ; qtot -0.118348
  561         c3     19    bbb     C4    561 -0.01612100  12.010000   ; qtot -0.134469
  562         hc     19    bbb     H7    562 0.04936100   1.008000   ; qtot -0.085108
  563         hc     19    bbb     H8    563 0.04936100   1.008000   ; qtot -0.035747
  564         c3     19    bbb     C5    564 0.11363000  12.010000   ; qtot 0.077883
  565         hc     19    bbb     H9    565 0.06265900   1.008000   ; qtot 0.140542
  566         hc     19    bbb    H10    566 0.06265900   1.008000   ; qtot 0.203201
  567         c3     19    bbb     C6    567 0.11363000  12.010000   ; qtot 0.316831
  568         hc     19    bbb    H11    568 0.06265900   1.008000   ; qtot 0.379490
  569         hc     19    bbb    H12    569 0.06265900   1.008000   ; qtot 0.442149
  570         c3     19    bbb     C7    570 0.05858200  12.010000   ; qtot 0.500731
  571         h1     19    bbb    H13    571 0.06123400   1.008000   ; qtot 0.561965
  572         h1     19    bbb    H14    572 0.06123400   1.008000   ; qtot 0.623199
  573         c3     19    bbb     C8    573 -0.72423400  12.010000   ; qtot -0.101035
  574         h1     19    bbb    H15    574 0.25637600   1.008000   ; qtot 0.155341
  575         h1     19    bbb    H16    575 0.25637600   1.008000   ; qtot 0.411717
  576         c3     19    bbb     C9    576 -0.72423400  12.010000   ; qtot -0.312517
  577         h1     19    bbb    H17    577 0.25637600   1.008000   ; qtot -0.056141
  578         h1     19    bbb    H18    578 0.25637600   1.008000   ; qtot 0.200235
  579         os     19    bbb     O1    579 -0.20025300  16.000000   ; qtot -0.000018
; residue   20 bbb rtp bbb q -0.0
  580         n3     20    bbb     N1    580 -0.59685800  14.010000   ; qtot -0.596876
  581         c3     20    bbb     C1    581 0.10137000  12.010000   ; qtot -0.495506
  582         h1     20    bbb     H1    582 0.04411300   1.008000   ; qtot -0.451393
  583         h1     20    bbb     H2    583 0.04411300   1.008000   ; qtot -0.407280
  584         c3     20    bbb     C2    584 0.10137000  12.010000   ; qtot -0.305910
  585         h1     20    bbb     H3    585 0.04411300   1.008000   ; qtot -0.261797
  586         h1     20    bbb     H4    586 0.04411300   1.008000   ; qtot -0.217684
  587         c3     20    bbb     C3    587 -0.00195300  12.010000   ; qtot -0.219637
  588         h1     20    bbb     H5    588 0.05064400   1.008000   ; qtot -0.168993
  589         h1     20    bbb     H6    589 0.05064400   1.008000   ; qtot -0.118349
  590         c3     20    bbb     C4    590 -0.01612100  12.010000   ; qtot -0.134470
  591         hc     20    bbb     H7    591 0.04936100   1.008000   ; qtot -0.085109
  592         hc     20    bbb     H8    592 0.04936100   1.008000   ; qtot -0.035748
  593         c3     20    bbb     C5    593 0.11363000  12.010000   ; qtot 0.077882
  594         hc     20    bbb     H9    594 0.06265900   1.008000   ; qtot 0.140541
  595         hc     20    bbb    H10    595 0.06265900   1.008000   ; qtot 0.203200
  596         c3     20    bbb     C6    596 0.11363000  12.010000   ; qtot 0.316830
  597         hc     20    bbb    H11    597 0.06265900   1.008000   ; qtot 0.379489
  598         hc     20    bbb    H12    598 0.06265900   1.008000   ; qtot 0.442148
  599         c3     20    bbb     C7    599 0.05858200  12.010000   ; qtot 0.500730
  600         h1     20    bbb    H13    600 0.06123400   1.008000   ; qtot 0.561964
  601         h1     20    bbb    H14    601 0.06123400   1.008000   ; qtot 0.623198
  602         c3     20    bbb     C8    602 -0.72423400  12.010000   ; qtot -0.101036
  603         h1     20    bbb    H15    603 0.25637600   1.008000   ; qtot 0.155340
  604         h1     20    bbb    H16    604 0.25637600   1.008000   ; qtot 0.411716
  605         c3     20    bbb     C9    605 -0.72423400  12.010000   ; qtot -0.312518
  606         h1     20    bbb    H17    606 0.25637600   1.008000   ; qtot -0.056142
  607         h1     20    bbb    H18    607 0.25637600   1.008000   ; qtot 0.200234
  608         os     20    bbb     O1    608 -0.20025300  16.000000   ; qtot -0.000019
; residue   21 bbb rtp bbb q -0.0
  609         n3     21    bbb     N1    609 -0.59685800  14.010000   ; qtot -0.596877
  610         c3     21    bbb     C1    610 0.10137000  12.010000   ; qtot -0.495507
  611         h1     21    bbb     H1    611 0.04411300   1.008000   ; qtot -0.451394
  612         h1     21    bbb     H2    612 0.04411300   1.008000   ; qtot -0.407281
  613         c3     21    bbb     C2    613 0.10137000  12.010000   ; qtot -0.305911
  614         h1     21    bbb     H3    614 0.04411300   1.008000   ; qtot -0.261798
  615         h1     21    bbb     H4    615 0.04411300   1.008000   ; qtot -0.217685
  616         c3     21    bbb     C3    616 -0.00195300  12.010000   ; qtot -0.219638
  617         h1     21    bbb     H5    617 0.05064400   1.008000   ; qtot -0.168994
  618         h1     21    bbb     H6    618 0.05064400   1.008000   ; qtot -0.118350
  619         c3     21    bbb     C4    619 -0.01612100  12.010000   ; qtot -0.134471
  620         hc     21    bbb     H7    620 0.04936100   1.008000   ; qtot -0.085110
  621         hc     21    bbb     H8    621 0.04936100   1.008000   ; qtot -0.035749
  622         c3     21    bbb     C5    622 0.11363000  12.010000   ; qtot 0.077881
  623         hc     21    bbb     H9    623 0.06265900   1.008000   ; qtot 0.140540
  624         hc     21    bbb    H10    624 0.06265900   1.008000   ; qtot 0.203199
  625         c3     21    bbb     C6    625 0.11363000  12.010000   ; qtot 0.316829
  626         hc     21    bbb    H11    626 0.06265900   1.008000   ; qtot 0.379488
  627         hc     21    bbb    H12    627 0.06265900   1.008000   ; qtot 0.442147
  628         c3     21    bbb     C7    628 0.05858200  12.010000   ; qtot 0.500729
  629         h1     21    bbb    H13    629 0.06123400   1.008000   ; qtot 0.561963
  630         h1     21    bbb    H14    630 0.06123400   1.008000   ; qtot 0.623197
  631         c3     21    bbb     C8    631 -0.72423400  12.010000   ; qtot -0.101037
  632         h1     21    bbb    H15    632 0.25637600   1.008000   ; qtot 0.155339
  633         h1     21    bbb    H16    633 0.25637600   1.008000   ; qtot 0.411715
  634         c3     21    bbb     C9    634 -0.72423400  12.010000   ; qtot -0.312519
  635         h1     21    bbb    H17    635 0.25637600   1.008000   ; qtot -0.056143
  636         h1     21    bbb    H18    636 0.25637600   1.008000   ; qtot 0.200233
  637         os     21    bbb     O1    637 -0.20025300  16.000000   ; qtot -0.000020
; residue   22 bbb rtp bbb q -0.0
  638         n3     22    bbb     N1    638 -0.59685800  14.010000   ; qtot -0.596878
  639         c3     22    bbb     C1    639 0.10137000  12.010000   ; qtot -0.495508
  640         h1     22    bbb     H1    640 0.04411300   1.008000   ; qtot -0.451395
  641         h1     22    bbb     H2    641 0.04411300   1.008000   ; qtot -0.407282
  642         c3     22    bbb     C2    642 0.10137000  12.010000   ; qtot -0.305912
  643         h1     22    bbb     H3    643 0.04411300   1.008000   ; qtot -0.261799
  644         h1     22    bbb     H4    644 0.04411300   1.008000   ; qtot -0.217686
  645         c3     22    bbb     C3    645 -0.00195300  12.010000   ; qtot -0.219639
  646         h1     22    bbb     H5    646 0.05064400   1.008000   ; qtot -0.168995
  647         h1     22    bbb     H6    647 0.05064400   1.008000   ; qtot -0.118351
  648         c3     22    bbb     C4    648 -0.01612100  12.010000   ; qtot -0.134472
  649         hc     22    bbb     H7    649 0.04936100   1.008000   ; qtot -0.085111
  650         hc     22    bbb     H8    650 0.04936100   1.008000   ; qtot -0.035750
  651         c3     22    bbb     C5    651 0.11363000  12.010000   ; qtot 0.077880
  652         hc     22    bbb     H9    652 0.06265900   1.008000   ; qtot 0.140539
  653         hc     22    bbb    H10    653 0.06265900   1.008000   ; qtot 0.203198
  654         c3     22    bbb     C6    654 0.11363000  12.010000   ; qtot 0.316828
  655         hc     22    bbb    H11    655 0.06265900   1.008000   ; qtot 0.379487
  656         hc     22    bbb    H12    656 0.06265900   1.008000   ; qtot 0.442146
  657         c3     22    bbb     C7    657 0.05858200  12.010000   ; qtot 0.500728
  658         h1     22    bbb    H13    658 0.06123400   1.008000   ; qtot 0.561962
  659         h1     22    bbb    H14    659 0.06123400   1.008000   ; qtot 0.623196
  660         c3     22    bbb     C8    660 -0.72423400  12.010000   ; qtot -0.101038
  661         h1     22    bbb    H15    661 0.25637600   1.008000   ; qtot 0.155338
  662         h1     22    bbb    H16    662 0.25637600   1.008000   ; qtot 0.411714
  663         c3     22    bbb     C9    663 -0.72423400  12.010000   ; qtot -0.312520
  664         h1     22    bbb    H17    664 0.25637600   1.008000   ; qtot -0.056144
  665         h1     22    bbb    H18    665 0.25637600   1.008000   ; qtot 0.200232
  666         os     22    bbb     O1    666 -0.20025300  16.000000   ; qtot -0.000021
; residue   23 bbb rtp bbb q -0.0
  667         n3     23    bbb     N1    667 -0.59685800  14.010000   ; qtot -0.596879
  668         c3     23    bbb     C1    668 0.10137000  12.010000   ; qtot -0.495509
  669         h1     23    bbb     H1    669 0.04411300   1.008000   ; qtot -0.451396
  670         h1     23    bbb     H2    670 0.04411300   1.008000   ; qtot -0.407283
  671         c3     23    bbb     C2    671 0.10137000  12.010000   ; qtot -0.305913
  672         h1     23    bbb     H3    672 0.04411300   1.008000   ; qtot -0.261800
  673         h1     23    bbb     H4    673 0.04411300   1.008000   ; qtot -0.217687
  674         c3     23    bbb     C3    674 -0.00195300  12.010000   ; qtot -0.219640
  675         h1     23    bbb     H5    675 0.05064400   1.008000   ; qtot -0.168996
  676         h1     23    bbb     H6    676 0.05064400   1.008000   ; qtot -0.118352
  677         c3     23    bbb     C4    677 -0.01612100  12.010000   ; qtot -0.134473
  678         hc     23    bbb     H7    678 0.04936100   1.008000   ; qtot -0.085112
  679         hc     23    bbb     H8    679 0.04936100   1.008000   ; qtot -0.035751
  680         c3     23    bbb     C5    680 0.11363000  12.010000   ; qtot 0.077879
  681         hc     23    bbb     H9    681 0.06265900   1.008000   ; qtot 0.140538
  682         hc     23    bbb    H10    682 0.06265900   1.008000   ; qtot 0.203197
  683         c3     23    bbb     C6    683 0.11363000  12.010000   ; qtot 0.316827
  684         hc     23    bbb    H11    684 0.06265900   1.008000   ; qtot 0.379486
  685         hc     23    bbb    H12    685 0.06265900   1.008000   ; qtot 0.442145
  686         c3     23    bbb     C7    686 0.05858200  12.010000   ; qtot 0.500727
  687         h1     23    bbb    H13    687 0.06123400   1.008000   ; qtot 0.561961
  688         h1     23    bbb    H14    688 0.06123400   1.008000   ; qtot 0.623195
  689         c3     23    bbb     C8    689 -0.72423400  12.010000   ; qtot -0.101039
  690         h1     23    bbb    H15    690 0.25637600   1.008000   ; qtot 0.155337
  691         h1     23    bbb    H16    691 0.25637600   1.008000   ; qtot 0.411713
  692         c3     23    bbb     C9    692 -0.72423400  12.010000   ; qtot -0.312521
  693         h1     23    bbb    H17    693 0.25637600   1.008000   ; qtot -0.056145
  694         h1     23    bbb    H18    694 0.25637600   1.008000   ; qtot 0.200231
  695         os     23    bbb     O1    695 -0.20025300  16.000000   ; qtot -0.000022
; residue   24 bbb rtp bbb q -0.0
  696         n3     24    bbb     N1    696 -0.59685800  14.010000   ; qtot -0.596880
  697         c3     24    bbb     C1    697 0.10137000  12.010000   ; qtot -0.495510
  698         h1     24    bbb     H1    698 0.04411300   1.008000   ; qtot -0.451397
  699         h1     24    bbb     H2    699 0.04411300   1.008000   ; qtot -0.407284
  700         c3     24    bbb     C2    700 0.10137000  12.010000   ; qtot -0.305914
  701         h1     24    bbb     H3    701 0.04411300   1.008000   ; qtot -0.261801
  702         h1     24    bbb     H4    702 0.04411300   1.008000   ; qtot -0.217688
  703         c3     24    bbb     C3    703 -0.00195300  12.010000   ; qtot -0.219641
  704         h1     24    bbb     H5    704 0.05064400   1.008000   ; qtot -0.168997
  705         h1     24    bbb     H6    705 0.05064400   1.008000   ; qtot -0.118353
  706         c3     24    bbb     C4    706 -0.01612100  12.010000   ; qtot -0.134474
  707         hc     24    bbb     H7    707 0.04936100   1.008000   ; qtot -0.085113
  708         hc     24    bbb     H8    708 0.04936100   1.008000   ; qtot -0.035752
  709         c3     24    bbb     C5    709 0.11363000  12.010000   ; qtot 0.077878
  710         hc     24    bbb     H9    710 0.06265900   1.008000   ; qtot 0.140537
  711         hc     24    bbb    H10    711 0.06265900   1.008000   ; qtot 0.203196
  712         c3     24    bbb     C6    712 0.11363000  12.010000   ; qtot 0.316826
  713         hc     24    bbb    H11    713 0.06265900   1.008000   ; qtot 0.379485
  714         hc     24    bbb    H12    714 0.06265900   1.008000   ; qtot 0.442144
  715         c3     24    bbb     C7    715 0.05858200  12.010000   ; qtot 0.500726
  716         h1     24    bbb    H13    716 0.06123400   1.008000   ; qtot 0.561960
  717         h1     24    bbb    H14    717 0.06123400   1.008000   ; qtot 0.623194
  718         c3     24    bbb     C8    718 -0.72423400  12.010000   ; qtot -0.101040
  719         h1     24    bbb    H15    719 0.25637600   1.008000   ; qtot 0.155336
  720         h1     24    bbb    H16    720 0.25637600   1.008000   ; qtot 0.411712
  721         c3     24    bbb     C9    721 -0.72423400  12.010000   ; qtot -0.312522
  722         h1     24    bbb    H17    722 0.25637600   1.008000   ; qtot -0.056146
  723         h1     24    bbb    H18    723 0.25637600   1.008000   ; qtot 0.200230
  724         os     24    bbb     O1    724 -0.20025300  16.000000   ; qtot -0.000023
; residue   25 bbb rtp bbb q -0.0
  725         n3     25    bbb     N1    725 -0.59685800  14.010000   ; qtot -0.596881
  726         c3     25    bbb     C1    726 0.10137000  12.010000   ; qtot -0.495511
  727         h1     25    bbb     H1    727 0.04411300   1.008000   ; qtot -0.451398
  728         h1     25    bbb     H2    728 0.04411300   1.008000   ; qtot -0.407285
  729         c3     25    bbb     C2    729 0.10137000  12.010000   ; qtot -0.305915
  730         h1     25    bbb     H3    730 0.04411300   1.008000   ; qtot -0.261802
  731         h1     25    bbb     H4    731 0.04411300   1.008000   ; qtot -0.217689
  732         c3     25    bbb     C3    732 -0.00195300  12.010000   ; qtot -0.219642
  733         h1     25    bbb     H5    733 0.05064400   1.008000   ; qtot -0.168998
  734         h1     25    bbb     H6    734 0.05064400   1.008000   ; qtot -0.118354
  735         c3     25    bbb     C4    735 -0.01612100  12.010000   ; qtot -0.134475
  736         hc     25    bbb     H7    736 0.04936100   1.008000   ; qtot -0.085114
  737         hc     25    bbb     H8    737 0.04936100   1.008000   ; qtot -0.035753
  738         c3     25    bbb     C5    738 0.11363000  12.010000   ; qtot 0.077877
  739         hc     25    bbb     H9    739 0.06265900   1.008000   ; qtot 0.140536
  740         hc     25    bbb    H10    740 0.06265900   1.008000   ; qtot 0.203195
  741         c3     25    bbb     C6    741 0.11363000  12.010000   ; qtot 0.316825
  742         hc     25    bbb    H11    742 0.06265900   1.008000   ; qtot 0.379484
  743         hc     25    bbb    H12    743 0.06265900   1.008000   ; qtot 0.442143
  744         c3     25    bbb     C7    744 0.05858200  12.010000   ; qtot 0.500725
  745         h1     25    bbb    H13    745 0.06123400   1.008000   ; qtot 0.561959
  746         h1     25    bbb    H14    746 0.06123400   1.008000   ; qtot 0.623193
  747         c3     25    bbb     C8    747 -0.72423400  12.010000   ; qtot -0.101041
  748         h1     25    bbb    H15    748 0.25637600   1.008000   ; qtot 0.155335
  749         h1     25    bbb    H16    749 0.25637600   1.008000   ; qtot 0.411711
  750         c3     25    bbb     C9    750 -0.72423400  12.010000   ; qtot -0.312523
  751         h1     25    bbb    H17    751 0.25637600   1.008000   ; qtot -0.056147
  752         h1     25    bbb    H18    752 0.25637600   1.008000   ; qtot 0.200229
  753         os     25    bbb     O1    753 -0.20025300  16.000000   ; qtot -0.000024
; residue   26 bbb rtp bbb q -0.0
  754         n3     26    bbb     N1    754 -0.59685800  14.010000   ; qtot -0.596882
  755         c3     26    bbb     C1    755 0.10137000  12.010000   ; qtot -0.495512
  756         h1     26    bbb     H1    756 0.04411300   1.008000   ; qtot -0.451399
  757         h1     26    bbb     H2    757 0.04411300   1.008000   ; qtot -0.407286
  758         c3     26    bbb     C2    758 0.10137000  12.010000   ; qtot -0.305916
  759         h1     26    bbb     H3    759 0.04411300   1.008000   ; qtot -0.261803
  760         h1     26    bbb     H4    760 0.04411300   1.008000   ; qtot -0.217690
  761         c3     26    bbb     C3    761 -0.00195300  12.010000   ; qtot -0.219643
  762         h1     26    bbb     H5    762 0.05064400   1.008000   ; qtot -0.168999
  763         h1     26    bbb     H6    763 0.05064400   1.008000   ; qtot -0.118355
  764         c3     26    bbb     C4    764 -0.01612100  12.010000   ; qtot -0.134476
  765         hc     26    bbb     H7    765 0.04936100   1.008000   ; qtot -0.085115
  766         hc     26    bbb     H8    766 0.04936100   1.008000   ; qtot -0.035754
  767         c3     26    bbb     C5    767 0.11363000  12.010000   ; qtot 0.077876
  768         hc     26    bbb     H9    768 0.06265900   1.008000   ; qtot 0.140535
  769         hc     26    bbb    H10    769 0.06265900   1.008000   ; qtot 0.203194
  770         c3     26    bbb     C6    770 0.11363000  12.010000   ; qtot 0.316824
  771         hc     26    bbb    H11    771 0.06265900   1.008000   ; qtot 0.379483
  772         hc     26    bbb    H12    772 0.06265900   1.008000   ; qtot 0.442142
  773         c3     26    bbb     C7    773 0.05858200  12.010000   ; qtot 0.500724
  774         h1     26    bbb    H13    774 0.06123400   1.008000   ; qtot 0.561958
  775         h1     26    bbb    H14    775 0.06123400   1.008000   ; qtot 0.623192
  776         c3     26    bbb     C8    776 -0.72423400  12.010000   ; qtot -0.101042
  777         h1     26    bbb    H15    777 0.25637600   1.008000   ; qtot 0.155334
  778         h1     26    bbb    H16    778 0.25637600   1.008000   ; qtot 0.411710
  779         c3     26    bbb     C9    779 -0.72423400  12.010000   ; qtot -0.312524
  780         h1     26    bbb    H17    780 0.25637600   1.008000   ; qtot -0.056148
  781         h1     26    bbb    H18    781 0.25637600   1.008000   ; qtot 0.200228
  782         os     26    bbb     O1    782 -0.20025300  16.000000   ; qtot -0.000025
; residue   27 bbb rtp bbb q -0.0
  783         n3     27    bbb     N1    783 -0.59685800  14.010000   ; qtot -0.596883
  784         c3     27    bbb     C1    784 0.10137000  12.010000   ; qtot -0.495513
  785         h1     27    bbb     H1    785 0.04411300   1.008000   ; qtot -0.451400
  786         h1     27    bbb     H2    786 0.04411300   1.008000   ; qtot -0.407287
  787         c3     27    bbb     C2    787 0.10137000  12.010000   ; qtot -0.305917
  788         h1     27    bbb     H3    788 0.04411300   1.008000   ; qtot -0.261804
  789         h1     27    bbb     H4    789 0.04411300   1.008000   ; qtot -0.217691
  790         c3     27    bbb     C3    790 -0.00195300  12.010000   ; qtot -0.219644
  791         h1     27    bbb     H5    791 0.05064400   1.008000   ; qtot -0.169000
  792         h1     27    bbb     H6    792 0.05064400   1.008000   ; qtot -0.118356
  793         c3     27    bbb     C4    793 -0.01612100  12.010000   ; qtot -0.134477
  794         hc     27    bbb     H7    794 0.04936100   1.008000   ; qtot -0.085116
  795         hc     27    bbb     H8    795 0.04936100   1.008000   ; qtot -0.035755
  796         c3     27    bbb     C5    796 0.11363000  12.010000   ; qtot 0.077875
  797         hc     27    bbb     H9    797 0.06265900   1.008000   ; qtot 0.140534
  798         hc     27    bbb    H10    798 0.06265900   1.008000   ; qtot 0.203193
  799         c3     27    bbb     C6    799 0.11363000  12.010000   ; qtot 0.316823
  800         hc     27    bbb    H11    800 0.06265900   1.008000   ; qtot 0.379482
  801         hc     27    bbb    H12    801 0.06265900   1.008000   ; qtot 0.442141
  802         c3     27    bbb     C7    802 0.05858200  12.010000   ; qtot 0.500723
  803         h1     27    bbb    H13    803 0.06123400   1.008000   ; qtot 0.561957
  804         h1     27    bbb    H14    804 0.06123400   1.008000   ; qtot 0.623191
  805         c3     27    bbb     C8    805 -0.72423400  12.010000   ; qtot -0.101043
  806         h1     27    bbb    H15    806 0.25637600   1.008000   ; qtot 0.155333
  807         h1     27    bbb    H16    807 0.25637600   1.008000   ; qtot 0.411709
  808         c3     27    bbb     C9    808 -0.72423400  12.010000   ; qtot -0.312525
  809         h1     27    bbb    H17    809 0.25637600   1.008000   ; qtot -0.056149
  810         h1     27    bbb    H18    810 0.25637600   1.008000   ; qtot 0.200227
  811         os     27    bbb     O1    811 -0.20025300  16.000000   ; qtot -0.000026
; residue   28 bbb rtp bbb q -0.0
  812         n3     28    bbb     N1    812 -0.59685800  14.010000   ; qtot -0.596884
  813         c3     28    bbb     C1    813 0.10137000  12.010000   ; qtot -0.495514
  814         h1     28    bbb     H1    814 0.04411300   1.008000   ; qtot -0.451401
  815         h1     28    bbb     H2    815 0.04411300   1.008000   ; qtot -0.407288
  816         c3     28    bbb     C2    816 0.10137000  12.010000   ; qtot -0.305918
  817         h1     28    bbb     H3    817 0.04411300   1.008000   ; qtot -0.261805
  818         h1     28    bbb     H4    818 0.04411300   1.008000   ; qtot -0.217692
  819         c3     28    bbb     C3    819 -0.00195300  12.010000   ; qtot -0.219645
  820         h1     28    bbb     H5    820 0.05064400   1.008000   ; qtot -0.169001
  821         h1     28    bbb     H6    821 0.05064400   1.008000   ; qtot -0.118357
  822         c3     28    bbb     C4    822 -0.01612100  12.010000   ; qtot -0.134478
  823         hc     28    bbb     H7    823 0.04936100   1.008000   ; qtot -0.085117
  824         hc     28    bbb     H8    824 0.04936100   1.008000   ; qtot -0.035756
  825         c3     28    bbb     C5    825 0.11363000  12.010000   ; qtot 0.077874
  826         hc     28    bbb     H9    826 0.06265900   1.008000   ; qtot 0.140533
  827         hc     28    bbb    H10    827 0.06265900   1.008000   ; qtot 0.203192
  828         c3     28    bbb     C6    828 0.11363000  12.010000   ; qtot 0.316822
  829         hc     28    bbb    H11    829 0.06265900   1.008000   ; qtot 0.379481
  830         hc     28    bbb    H12    830 0.06265900   1.008000   ; qtot 0.442140
  831         c3     28    bbb     C7    831 0.05858200  12.010000   ; qtot 0.500722
  832         h1     28    bbb    H13    832 0.06123400   1.008000   ; qtot 0.561956
  833         h1     28    bbb    H14    833 0.06123400   1.008000   ; qtot 0.623190
  834         c3     28    bbb     C8    834 -0.72423400  12.010000   ; qtot -0.101044
  835         h1     28    bbb    H15    835 0.25637600   1.008000   ; qtot 0.155332
  836         h1     28    bbb    H16    836 0.25637600   1.008000   ; qtot 0.411708
  837         c3     28    bbb     C9    837 -0.72423400  12.010000   ; qtot -0.312526
  838         h1     28    bbb    H17    838 0.25637600   1.008000   ; qtot -0.056150
  839         h1     28    bbb    H18    839 0.25637600   1.008000   ; qtot 0.200226
  840         os     28    bbb     O1    840 -0.20025300  16.000000   ; qtot -0.000027
; residue   29 bbb rtp bbb q -0.0
  841         n3     29    bbb     N1    841 -0.59685800  14.010000   ; qtot -0.596885
  842         c3     29    bbb     C1    842 0.10137000  12.010000   ; qtot -0.495515
  843         h1     29    bbb     H1    843 0.04411300   1.008000   ; qtot -0.451402
  844         h1     29    bbb     H2    844 0.04411300   1.008000   ; qtot -0.407289
  845         c3     29    bbb     C2    845 0.10137000  12.010000   ; qtot -0.305919
  846         h1     29    bbb     H3    846 0.04411300   1.008000   ; qtot -0.261806
  847         h1     29    bbb     H4    847 0.04411300   1.008000   ; qtot -0.217693
  848         c3     29    bbb     C3    848 -0.00195300  12.010000   ; qtot -0.219646
  849         h1     29    bbb     H5    849 0.05064400   1.008000   ; qtot -0.169002
  850         h1     29    bbb     H6    850 0.05064400   1.008000   ; qtot -0.118358
  851         c3     29    bbb     C4    851 -0.01612100  12.010000   ; qtot -0.134479
  852         hc     29    bbb     H7    852 0.04936100   1.008000   ; qtot -0.085118
  853         hc     29    bbb     H8    853 0.04936100   1.008000   ; qtot -0.035757
  854         c3     29    bbb     C5    854 0.11363000  12.010000   ; qtot 0.077873
  855         hc     29    bbb     H9    855 0.06265900   1.008000   ; qtot 0.140532
  856         hc     29    bbb    H10    856 0.06265900   1.008000   ; qtot 0.203191
  857         c3     29    bbb     C6    857 0.11363000  12.010000   ; qtot 0.316821
  858         hc     29    bbb    H11    858 0.06265900   1.008000   ; qtot 0.379480
  859         hc     29    bbb    H12    859 0.06265900   1.008000   ; qtot 0.442139
  860         c3     29    bbb     C7    860 0.05858200  12.010000   ; qtot 0.500721
  861         h1     29    bbb    H13    861 0.06123400   1.008000   ; qtot 0.561955
  862         h1     29    bbb    H14    862 0.06123400   1.008000   ; qtot 0.623189
  863         c3     29    bbb     C8    863 -0.72423400  12.010000   ; qtot -0.101045
  864         h1     29    bbb    H15    864 0.25637600   1.008000   ; qtot 0.155331
  865         h1     29    bbb    H16    865 0.25637600   1.008000   ; qtot 0.411707
  866         c3     29    bbb     C9    866 -0.72423400  12.010000   ; qtot -0.312527
  867         h1     29    bbb    H17    867 0.25637600   1.008000   ; qtot -0.056151
  868         h1     29    bbb    H18    868 0.25637600   1.008000   ; qtot 0.200225
  869         os     29    bbb     O1    869 -0.20025300  16.000000   ; qtot -0.000028
; residue   30 bbb rtp bbb q -0.0
  870         n3     30    bbb     N1    870 -0.59685800  14.010000   ; qtot -0.596886
  871         c3     30    bbb     C1    871 0.10137000  12.010000   ; qtot -0.495516
  872         h1     30    bbb     H1    872 0.04411300   1.008000   ; qtot -0.451403
  873         h1     30    bbb     H2    873 0.04411300   1.008000   ; qtot -0.407290
  874         c3     30    bbb     C2    874 0.10137000  12.010000   ; qtot -0.305920
  875         h1     30    bbb     H3    875 0.04411300   1.008000   ; qtot -0.261807
  876         h1     30    bbb     H4    876 0.04411300   1.008000   ; qtot -0.217694
  877         c3     30    bbb     C3    877 -0.00195300  12.010000   ; qtot -0.219647
  878         h1     30    bbb     H5    878 0.05064400   1.008000   ; qtot -0.169003
  879         h1     30    bbb     H6    879 0.05064400   1.008000   ; qtot -0.118359
  880         c3     30    bbb     C4    880 -0.01612100  12.010000   ; qtot -0.134480
  881         hc     30    bbb     H7    881 0.04936100   1.008000   ; qtot -0.085119
  882         hc     30    bbb     H8    882 0.04936100   1.008000   ; qtot -0.035758
  883         c3     30    bbb     C5    883 0.11363000  12.010000   ; qtot 0.077872
  884         hc     30    bbb     H9    884 0.06265900   1.008000   ; qtot 0.140531
  885         hc     30    bbb    H10    885 0.06265900   1.008000   ; qtot 0.203190
  886         c3     30    bbb     C6    886 0.11363000  12.010000   ; qtot 0.316820
  887         hc     30    bbb    H11    887 0.06265900   1.008000   ; qtot 0.379479
  888         hc     30    bbb    H12    888 0.06265900   1.008000   ; qtot 0.442138
  889         c3     30    bbb     C7    889 0.05858200  12.010000   ; qtot 0.500720
  890         h1     30    bbb    H13    890 0.06123400   1.008000   ; qtot 0.561954
  891         h1     30    bbb    H14    891 0.06123400   1.008000   ; qtot 0.623188
  892         c3     30    bbb     C8    892 -0.72423400  12.010000   ; qtot -0.101046
  893         h1     30    bbb    H15    893 0.25637600   1.008000   ; qtot 0.155330
  894         h1     30    bbb    H16    894 0.25637600   1.008000   ; qtot 0.411706
  895         c3     30    bbb     C9    895 -0.72423400  12.010000   ; qtot -0.312528
  896         h1     30    bbb    H17    896 0.25637600   1.008000   ; qtot -0.056152
  897         h1     30    bbb    H18    897 0.25637600   1.008000   ; qtot 0.200224
  898         os     30    bbb     O1    898 -0.20025300  16.000000   ; qtot -0.000029
; residue   31 bbb rtp bbb q -0.0
  899         n3     31    bbb     N1    899 -0.59685800  14.010000   ; qtot -0.596887
  900         c3     31    bbb     C1    900 0.10137000  12.010000   ; qtot -0.495517
  901         h1     31    bbb     H1    901 0.04411300   1.008000   ; qtot -0.451404
  902         h1     31    bbb     H2    902 0.04411300   1.008000   ; qtot -0.407291
  903         c3     31    bbb     C2    903 0.10137000  12.010000   ; qtot -0.305921
  904         h1     31    bbb     H3    904 0.04411300   1.008000   ; qtot -0.261808
  905         h1     31    bbb     H4    905 0.04411300   1.008000   ; qtot -0.217695
  906         c3     31    bbb     C3    906 -0.00195300  12.010000   ; qtot -0.219648
  907         h1     31    bbb     H5    907 0.05064400   1.008000   ; qtot -0.169004
  908         h1     31    bbb     H6    908 0.05064400   1.008000   ; qtot -0.118360
  909         c3     31    bbb     C4    909 -0.01612100  12.010000   ; qtot -0.134481
  910         hc     31    bbb     H7    910 0.04936100   1.008000   ; qtot -0.085120
  911         hc     31    bbb     H8    911 0.04936100   1.008000   ; qtot -0.035759
  912         c3     31    bbb     C5    912 0.11363000  12.010000   ; qtot 0.077871
  913         hc     31    bbb     H9    913 0.06265900   1.008000   ; qtot 0.140530
  914         hc     31    bbb    H10    914 0.06265900   1.008000   ; qtot 0.203189
  915         c3     31    bbb     C6    915 0.11363000  12.010000   ; qtot 0.316819
  916         hc     31    bbb    H11    916 0.06265900   1.008000   ; qtot 0.379478
  917         hc     31    bbb    H12    917 0.06265900   1.008000   ; qtot 0.442137
  918         c3     31    bbb     C7    918 0.05858200  12.010000   ; qtot 0.500719
  919         h1     31    bbb    H13    919 0.06123400   1.008000   ; qtot 0.561953
  920         h1     31    bbb    H14    920 0.06123400   1.008000   ; qtot 0.623187
  921         c3     31    bbb     C8    921 -0.72423400  12.010000   ; qtot -0.101047
  922         h1     31    bbb    H15    922 0.25637600   1.008000   ; qtot 0.155329
  923         h1     31    bbb    H16    923 0.25637600   1.008000   ; qtot 0.411705
  924         c3     31    bbb     C9    924 -0.72423400  12.010000   ; qtot -0.312529
  925         h1     31    bbb    H17    925 0.25637600   1.008000   ; qtot -0.056153
  926         h1     31    bbb    H18    926 0.25637600   1.008000   ; qtot 0.200223
  927         os     31    bbb     O1    927 -0.20025300  16.000000   ; qtot -0.000030
; residue   32 bbb rtp bbb q -0.0
  928         n3     32    bbb     N1    928 -0.59685800  14.010000   ; qtot -0.596888
  929         c3     32    bbb     C1    929 0.10137000  12.010000   ; qtot -0.495518
  930         h1     32    bbb     H1    930 0.04411300   1.008000   ; qtot -0.451405
  931         h1     32    bbb     H2    931 0.04411300   1.008000   ; qtot -0.407292
  932         c3     32    bbb     C2    932 0.10137000  12.010000   ; qtot -0.305922
  933         h1     32    bbb     H3    933 0.04411300   1.008000   ; qtot -0.261809
  934         h1     32    bbb     H4    934 0.04411300   1.008000   ; qtot -0.217696
  935         c3     32    bbb     C3    935 -0.00195300  12.010000   ; qtot -0.219649
  936         h1     32    bbb     H5    936 0.05064400   1.008000   ; qtot -0.169005
  937         h1     32    bbb     H6    937 0.05064400   1.008000   ; qtot -0.118361
  938         c3     32    bbb     C4    938 -0.01612100  12.010000   ; qtot -0.134482
  939         hc     32    bbb     H7    939 0.04936100   1.008000   ; qtot -0.085121
  940         hc     32    bbb     H8    940 0.04936100   1.008000   ; qtot -0.035760
  941         c3     32    bbb     C5    941 0.11363000  12.010000   ; qtot 0.077870
  942         hc     32    bbb     H9    942 0.06265900   1.008000   ; qtot 0.140529
  943         hc     32    bbb    H10    943 0.06265900   1.008000   ; qtot 0.203188
  944         c3     32    bbb     C6    944 0.11363000  12.010000   ; qtot 0.316818
  945         hc     32    bbb    H11    945 0.06265900   1.008000   ; qtot 0.379477
  946         hc     32    bbb    H12    946 0.06265900   1.008000   ; qtot 0.442136
  947         c3     32    bbb     C7    947 0.05858200  12.010000   ; qtot 0.500718
  948         h1     32    bbb    H13    948 0.06123400   1.008000   ; qtot 0.561952
  949         h1     32    bbb    H14    949 0.06123400   1.008000   ; qtot 0.623186
  950         c3     32    bbb     C8    950 -0.72423400  12.010000   ; qtot -0.101048
  951         h1     32    bbb    H15    951 0.25637600   1.008000   ; qtot 0.155328
  952         h1     32    bbb    H16    952 0.25637600   1.008000   ; qtot 0.411704
  953         c3     32    bbb     C9    953 -0.72423400  12.010000   ; qtot -0.312530
  954         h1     32    bbb    H17    954 0.25637600   1.008000   ; qtot -0.056154
  955         h1     32    bbb    H18    955 0.25637600   1.008000   ; qtot 0.200222
  956         os     32    bbb     O1    956 -0.20025300  16.000000   ; qtot -0.000031
; residue   33 bbb rtp bbb q -0.0
  957         n3     33    bbb     N1    957 -0.59685800  14.010000   ; qtot -0.596889
  958         c3     33    bbb     C1    958 0.10137000  12.010000   ; qtot -0.495519
  959         h1     33    bbb     H1    959 0.04411300   1.008000   ; qtot -0.451406
  960         h1     33    bbb     H2    960 0.04411300   1.008000   ; qtot -0.407293
  961         c3     33    bbb     C2    961 0.10137000  12.010000   ; qtot -0.305923
  962         h1     33    bbb     H3    962 0.04411300   1.008000   ; qtot -0.261810
  963         h1     33    bbb     H4    963 0.04411300   1.008000   ; qtot -0.217697
  964         c3     33    bbb     C3    964 -0.00195300  12.010000   ; qtot -0.219650
  965         h1     33    bbb     H5    965 0.05064400   1.008000   ; qtot -0.169006
  966         h1     33    bbb     H6    966 0.05064400   1.008000   ; qtot -0.118362
  967         c3     33    bbb     C4    967 -0.01612100  12.010000   ; qtot -0.134483
  968         hc     33    bbb     H7    968 0.04936100   1.008000   ; qtot -0.085122
  969         hc     33    bbb     H8    969 0.04936100   1.008000   ; qtot -0.035761
  970         c3     33    bbb     C5    970 0.11363000  12.010000   ; qtot 0.077869
  971         hc     33    bbb     H9    971 0.06265900   1.008000   ; qtot 0.140528
  972         hc     33    bbb    H10    972 0.06265900   1.008000   ; qtot 0.203187
  973         c3     33    bbb     C6    973 0.11363000  12.010000   ; qtot 0.316817
  974         hc     33    bbb    H11    974 0.06265900   1.008000   ; qtot 0.379476
  975         hc     33    bbb    H12    975 0.06265900   1.008000   ; qtot 0.442135
  976         c3     33    bbb     C7    976 0.05858200  12.010000   ; qtot 0.500717
  977         h1     33    bbb    H13    977 0.06123400   1.008000   ; qtot 0.561951
  978         h1     33    bbb    H14    978 0.06123400   1.008000   ; qtot 0.623185
  979         c3     33    bbb     C8    979 -0.72423400  12.010000   ; qtot -0.101049
  980         h1     33    bbb    H15    980 0.25637600   1.008000   ; qtot 0.155327
  981         h1     33    bbb    H16    981 0.25637600   1.008000   ; qtot 0.411703
  982         c3     33    bbb     C9    982 -0.72423400  12.010000   ; qtot -0.312531
  983         h1     33    bbb    H17    983 0.25637600   1.008000   ; qtot -0.056155
  984         h1     33    bbb    H18    984 0.25637600   1.008000   ; qtot 0.200221
  985         os     33    bbb     O1    985 -0.20025300  16.000000   ; qtot -0.000032
; residue   34 bbb rtp bbb q -0.0
  986         n3     34    bbb     N1    986 -0.59685800  14.010000   ; qtot -0.596890
  987         c3     34    bbb     C1    987 0.10137000  12.010000   ; qtot -0.495520
  988         h1     34    bbb     H1    988 0.04411300   1.008000   ; qtot -0.451407
  989         h1     34    bbb     H2    989 0.04411300   1.008000   ; qtot -0.407294
  990         c3     34    bbb     C2    990 0.10137000  12.010000   ; qtot -0.305924
  991         h1     34    bbb     H3    991 0.04411300   1.008000   ; qtot -0.261811
  992         h1     34    bbb     H4    992 0.04411300   1.008000   ; qtot -0.217698
  993         c3     34    bbb     C3    993 -0.00195300  12.010000   ; qtot -0.219651
  994         h1     34    bbb     H5    994 0.05064400   1.008000   ; qtot -0.169007
  995         h1     34    bbb     H6    995 0.05064400   1.008000   ; qtot -0.118363
  996         c3     34    bbb     C4    996 -0.01612100  12.010000   ; qtot -0.134484
  997         hc     34    bbb     H7    997 0.04936100   1.008000   ; qtot -0.085123
  998         hc     34    bbb     H8    998 0.04936100   1.008000   ; qtot -0.035762
  999         c3     34    bbb     C5    999 0.11363000  12.010000   ; qtot 0.077868
 1000         hc     34    bbb     H9   1000 0.06265900   1.008000   ; qtot 0.140527
 1001         hc     34    bbb    H10   1001 0.06265900   1.008000   ; qtot 0.203186
 1002         c3     34    bbb     C6   1002 0.11363000  12.010000   ; qtot 0.316816
 1003         hc     34    bbb    H11   1003 0.06265900   1.008000   ; qtot 0.379475
 1004         hc     34    bbb    H12   1004 0.06265900   1.008000   ; qtot 0.442134
 1005         c3     34    bbb     C7   1005 0.05858200  12.010000   ; qtot 0.500716
 1006         h1     34    bbb    H13   1006 0.06123400   1.008000   ; qtot 0.561950
 1007         h1     34    bbb    H14   1007 0.06123400   1.008000   ; qtot 0.623184
 1008         c3     34    bbb     C8   1008 -0.72423400  12.010000   ; qtot -0.101050
 1009         h1     34    bbb    H15   1009 0.25637600   1.008000   ; qtot 0.155326
 1010         h1     34    bbb    H16   1010 0.25637600   1.008000   ; qtot 0.411702
 1011         c3     34    bbb     C9   1011 -0.72423400  12.010000   ; qtot -0.312532
 1012         h1     34    bbb    H17   1012 0.25637600   1.008000   ; qtot -0.056156
 1013         h1     34    bbb    H18   1013 0.25637600   1.008000   ; qtot 0.200220
 1014         os     34    bbb     O1   1014 -0.20025300  16.000000   ; qtot -0.000033
; residue   35 bbb rtp bbb q -0.0
 1015         n3     35    bbb     N1   1015 -0.59685800  14.010000   ; qtot -0.596891
 1016         c3     35    bbb     C1   1016 0.10137000  12.010000   ; qtot -0.495521
 1017         h1     35    bbb     H1   1017 0.04411300   1.008000   ; qtot -0.451408
 1018         h1     35    bbb     H2   1018 0.04411300   1.008000   ; qtot -0.407295
 1019         c3     35    bbb     C2   1019 0.10137000  12.010000   ; qtot -0.305925
 1020         h1     35    bbb     H3   1020 0.04411300   1.008000   ; qtot -0.261812
 1021         h1     35    bbb     H4   1021 0.04411300   1.008000   ; qtot -0.217699
 1022         c3     35    bbb     C3   1022 -0.00195300  12.010000   ; qtot -0.219652
 1023         h1     35    bbb     H5   1023 0.05064400   1.008000   ; qtot -0.169008
 1024         h1     35    bbb     H6   1024 0.05064400   1.008000   ; qtot -0.118364
 1025         c3     35    bbb     C4   1025 -0.01612100  12.010000   ; qtot -0.134485
 1026         hc     35    bbb     H7   1026 0.04936100   1.008000   ; qtot -0.085124
 1027         hc     35    bbb     H8   1027 0.04936100   1.008000   ; qtot -0.035763
 1028         c3     35    bbb     C5   1028 0.11363000  12.010000   ; qtot 0.077867
 1029         hc     35    bbb     H9   1029 0.06265900   1.008000   ; qtot 0.140526
 1030         hc     35    bbb    H10   1030 0.06265900   1.008000   ; qtot 0.203185
 1031         c3     35    bbb     C6   1031 0.11363000  12.010000   ; qtot 0.316815
 1032         hc     35    bbb    H11   1032 0.06265900   1.008000   ; qtot 0.379474
 1033         hc     35    bbb    H12   1033 0.06265900   1.008000   ; qtot 0.442133
 1034         c3     35    bbb     C7   1034 0.05858200  12.010000   ; qtot 0.500715
 1035         h1     35    bbb    H13   1035 0.06123400   1.008000   ; qtot 0.561949
 1036         h1     35    bbb    H14   1036 0.06123400   1.008000   ; qtot 0.623183
 1037         c3     35    bbb     C8   1037 -0.72423400  12.010000   ; qtot -0.101051
 1038         h1     35    bbb    H15   1038 0.25637600   1.008000   ; qtot 0.155325
 1039         h1     35    bbb    H16   1039 0.25637600   1.008000   ; qtot 0.411701
 1040         c3     35    bbb     C9   1040 -0.72423400  12.010000   ; qtot -0.312533
 1041         h1     35    bbb    H17   1041 0.25637600   1.008000   ; qtot -0.056157
 1042         h1     35    bbb    H18   1042 0.25637600   1.008000   ; qtot 0.200219
 1043         os     35    bbb     O1   1043 -0.20025300  16.000000   ; qtot -0.000034
; residue   36 bbb rtp bbb q -0.0
 1044         n3     36    bbb     N1   1044 -0.59685800  14.010000   ; qtot -0.596892
 1045         c3     36    bbb     C1   1045 0.10137000  12.010000   ; qtot -0.495522
 1046         h1     36    bbb     H1   1046 0.04411300   1.008000   ; qtot -0.451409
 1047         h1     36    bbb     H2   1047 0.04411300   1.008000   ; qtot -0.407296
 1048         c3     36    bbb     C2   1048 0.10137000  12.010000   ; qtot -0.305926
 1049         h1     36    bbb     H3   1049 0.04411300   1.008000   ; qtot -0.261813
 1050         h1     36    bbb     H4   1050 0.04411300   1.008000   ; qtot -0.217700
 1051         c3     36    bbb     C3   1051 -0.00195300  12.010000   ; qtot -0.219653
 1052         h1     36    bbb     H5   1052 0.05064400   1.008000   ; qtot -0.169009
 1053         h1     36    bbb     H6   1053 0.05064400   1.008000   ; qtot -0.118365
 1054         c3     36    bbb     C4   1054 -0.01612100  12.010000   ; qtot -0.134486
 1055         hc     36    bbb     H7   1055 0.04936100   1.008000   ; qtot -0.085125
 1056         hc     36    bbb     H8   1056 0.04936100   1.008000   ; qtot -0.035764
 1057         c3     36    bbb     C5   1057 0.11363000  12.010000   ; qtot 0.077866
 1058         hc     36    bbb     H9   1058 0.06265900   1.008000   ; qtot 0.140525
 1059         hc     36    bbb    H10   1059 0.06265900   1.008000   ; qtot 0.203184
 1060         c3     36    bbb     C6   1060 0.11363000  12.010000   ; qtot 0.316814
 1061         hc     36    bbb    H11   1061 0.06265900   1.008000   ; qtot 0.379473
 1062         hc     36    bbb    H12   1062 0.06265900   1.008000   ; qtot 0.442132
 1063         c3     36    bbb     C7   1063 0.05858200  12.010000   ; qtot 0.500714
 1064         h1     36    bbb    H13   1064 0.06123400   1.008000   ; qtot 0.561948
 1065         h1     36    bbb    H14   1065 0.06123400   1.008000   ; qtot 0.623182
 1066         c3     36    bbb     C8   1066 -0.72423400  12.010000   ; qtot -0.101052
 1067         h1     36    bbb    H15   1067 0.25637600   1.008000   ; qtot 0.155324
 1068         h1     36    bbb    H16   1068 0.25637600   1.008000   ; qtot 0.411700
 1069         c3     36    bbb     C9   1069 -0.72423400  12.010000   ; qtot -0.312534
 1070         h1     36    bbb    H17   1070 0.25637600   1.008000   ; qtot -0.056158
 1071         h1     36    bbb    H18   1071 0.25637600   1.008000   ; qtot 0.200218
 1072         os     36    bbb     O1   1072 -0.20025300  16.000000   ; qtot -0.000035
; residue   37 bbb rtp bbb q -0.0
 1073         n3     37    bbb     N1   1073 -0.59685800  14.010000   ; qtot -0.596893
 1074         c3     37    bbb     C1   1074 0.10137000  12.010000   ; qtot -0.495523
 1075         h1     37    bbb     H1   1075 0.04411300   1.008000   ; qtot -0.451410
 1076         h1     37    bbb     H2   1076 0.04411300   1.008000   ; qtot -0.407297
 1077         c3     37    bbb     C2   1077 0.10137000  12.010000   ; qtot -0.305927
 1078         h1     37    bbb     H3   1078 0.04411300   1.008000   ; qtot -0.261814
 1079         h1     37    bbb     H4   1079 0.04411300   1.008000   ; qtot -0.217701
 1080         c3     37    bbb     C3   1080 -0.00195300  12.010000   ; qtot -0.219654
 1081         h1     37    bbb     H5   1081 0.05064400   1.008000   ; qtot -0.169010
 1082         h1     37    bbb     H6   1082 0.05064400   1.008000   ; qtot -0.118366
 1083         c3     37    bbb     C4   1083 -0.01612100  12.010000   ; qtot -0.134487
 1084         hc     37    bbb     H7   1084 0.04936100   1.008000   ; qtot -0.085126
 1085         hc     37    bbb     H8   1085 0.04936100   1.008000   ; qtot -0.035765
 1086         c3     37    bbb     C5   1086 0.11363000  12.010000   ; qtot 0.077865
 1087         hc     37    bbb     H9   1087 0.06265900   1.008000   ; qtot 0.140524
 1088         hc     37    bbb    H10   1088 0.06265900   1.008000   ; qtot 0.203183
 1089         c3     37    bbb     C6   1089 0.11363000  12.010000   ; qtot 0.316813
 1090         hc     37    bbb    H11   1090 0.06265900   1.008000   ; qtot 0.379472
 1091         hc     37    bbb    H12   1091 0.06265900   1.008000   ; qtot 0.442131
 1092         c3     37    bbb     C7   1092 0.05858200  12.010000   ; qtot 0.500713
 1093         h1     37    bbb    H13   1093 0.06123400   1.008000   ; qtot 0.561947
 1094         h1     37    bbb    H14   1094 0.06123400   1.008000   ; qtot 0.623181
 1095         c3     37    bbb     C8   1095 -0.72423400  12.010000   ; qtot -0.101053
 1096         h1     37    bbb    H15   1096 0.25637600   1.008000   ; qtot 0.155323
 1097         h1     37    bbb    H16   1097 0.25637600   1.008000   ; qtot 0.411699
 1098         c3     37    bbb     C9   1098 -0.72423400  12.010000   ; qtot -0.312535
 1099         h1     37    bbb    H17   1099 0.25637600   1.008000   ; qtot -0.056159
 1100         h1     37    bbb    H18   1100 0.25637600   1.008000   ; qtot 0.200217
 1101         os     37    bbb     O1   1101 -0.20025300  16.000000   ; qtot -0.000036
; residue   38 bbb rtp bbb q -0.0
 1102         n3     38    bbb     N1   1102 -0.59685800  14.010000   ; qtot -0.596894
 1103         c3     38    bbb     C1   1103 0.10137000  12.010000   ; qtot -0.495524
 1104         h1     38    bbb     H1   1104 0.04411300   1.008000   ; qtot -0.451411
 1105         h1     38    bbb     H2   1105 0.04411300   1.008000   ; qtot -0.407298
 1106         c3     38    bbb     C2   1106 0.10137000  12.010000   ; qtot -0.305928
 1107         h1     38    bbb     H3   1107 0.04411300   1.008000   ; qtot -0.261815
 1108         h1     38    bbb     H4   1108 0.04411300   1.008000   ; qtot -0.217702
 1109         c3     38    bbb     C3   1109 -0.00195300  12.010000   ; qtot -0.219655
 1110         h1     38    bbb     H5   1110 0.05064400   1.008000   ; qtot -0.169011
 1111         h1     38    bbb     H6   1111 0.05064400   1.008000   ; qtot -0.118367
 1112         c3     38    bbb     C4   1112 -0.01612100  12.010000   ; qtot -0.134488
 1113         hc     38    bbb     H7   1113 0.04936100   1.008000   ; qtot -0.085127
 1114         hc     38    bbb     H8   1114 0.04936100   1.008000   ; qtot -0.035766
 1115         c3     38    bbb     C5   1115 0.11363000  12.010000   ; qtot 0.077864
 1116         hc     38    bbb     H9   1116 0.06265900   1.008000   ; qtot 0.140523
 1117         hc     38    bbb    H10   1117 0.06265900   1.008000   ; qtot 0.203182
 1118         c3     38    bbb     C6   1118 0.11363000  12.010000   ; qtot 0.316812
 1119         hc     38    bbb    H11   1119 0.06265900   1.008000   ; qtot 0.379471
 1120         hc     38    bbb    H12   1120 0.06265900   1.008000   ; qtot 0.442130
 1121         c3     38    bbb     C7   1121 0.05858200  12.010000   ; qtot 0.500712
 1122         h1     38    bbb    H13   1122 0.06123400   1.008000   ; qtot 0.561946
 1123         h1     38    bbb    H14   1123 0.06123400   1.008000   ; qtot 0.623180
 1124         c3     38    bbb     C8   1124 -0.72423400  12.010000   ; qtot -0.101054
 1125         h1     38    bbb    H15   1125 0.25637600   1.008000   ; qtot 0.155322
 1126         h1     38    bbb    H16   1126 0.25637600   1.008000   ; qtot 0.411698
 1127         c3     38    bbb     C9   1127 -0.72423400  12.010000   ; qtot -0.312536
 1128         h1     38    bbb    H17   1128 0.25637600   1.008000   ; qtot -0.056160
 1129         h1     38    bbb    H18   1129 0.25637600   1.008000   ; qtot 0.200216
 1130         os     38    bbb     O1   1130 -0.20025300  16.000000   ; qtot -0.000037
; residue   39 bbb rtp bbb q -0.0
 1131         n3     39    bbb     N1   1131 -0.59685800  14.010000   ; qtot -0.596895
 1132         c3     39    bbb     C1   1132 0.10137000  12.010000   ; qtot -0.495525
 1133         h1     39    bbb     H1   1133 0.04411300   1.008000   ; qtot -0.451412
 1134         h1     39    bbb     H2   1134 0.04411300   1.008000   ; qtot -0.407299
 1135         c3     39    bbb     C2   1135 0.10137000  12.010000   ; qtot -0.305929
 1136         h1     39    bbb     H3   1136 0.04411300   1.008000   ; qtot -0.261816
 1137         h1     39    bbb     H4   1137 0.04411300   1.008000   ; qtot -0.217703
 1138         c3     39    bbb     C3   1138 -0.00195300  12.010000   ; qtot -0.219656
 1139         h1     39    bbb     H5   1139 0.05064400   1.008000   ; qtot -0.169012
 1140         h1     39    bbb     H6   1140 0.05064400   1.008000   ; qtot -0.118368
 1141         c3     39    bbb     C4   1141 -0.01612100  12.010000   ; qtot -0.134489
 1142         hc     39    bbb     H7   1142 0.04936100   1.008000   ; qtot -0.085128
 1143         hc     39    bbb     H8   1143 0.04936100   1.008000   ; qtot -0.035767
 1144         c3     39    bbb     C5   1144 0.11363000  12.010000   ; qtot 0.077863
 1145         hc     39    bbb     H9   1145 0.06265900   1.008000   ; qtot 0.140522
 1146         hc     39    bbb    H10   1146 0.06265900   1.008000   ; qtot 0.203181
 1147         c3     39    bbb     C6   1147 0.11363000  12.010000   ; qtot 0.316811
 1148         hc     39    bbb    H11   1148 0.06265900   1.008000   ; qtot 0.379470
 1149         hc     39    bbb    H12   1149 0.06265900   1.008000   ; qtot 0.442129
 1150         c3     39    bbb     C7   1150 0.05858200  12.010000   ; qtot 0.500711
 1151         h1     39    bbb    H13   1151 0.06123400   1.008000   ; qtot 0.561945
 1152         h1     39    bbb    H14   1152 0.06123400   1.008000   ; qtot 0.623179
 1153         c3     39    bbb     C8   1153 -0.72423400  12.010000   ; qtot -0.101055
 1154         h1     39    bbb    H15   1154 0.25637600   1.008000   ; qtot 0.155321
 1155         h1     39    bbb    H16   1155 0.25637600   1.008000   ; qtot 0.411697
 1156         c3     39    bbb     C9   1156 -0.72423400  12.010000   ; qtot -0.312537
 1157         h1     39    bbb    H17   1157 0.25637600   1.008000   ; qtot -0.056161
 1158         h1     39    bbb    H18   1158 0.25637600   1.008000   ; qtot 0.200215
 1159         os     39    bbb     O1   1159 -0.20025300  16.000000   ; qtot -0.000038
; residue   40 bbb rtp bbb q -0.0
 1160         n3     40    bbb     N1   1160 -0.59685800  14.010000   ; qtot -0.596896
 1161         c3     40    bbb     C1   1161 0.10137000  12.010000   ; qtot -0.495526
 1162         h1     40    bbb     H1   1162 0.04411300   1.008000   ; qtot -0.451413
 1163         h1     40    bbb     H2   1163 0.04411300   1.008000   ; qtot -0.407300
 1164         c3     40    bbb     C2   1164 0.10137000  12.010000   ; qtot -0.305930
 1165         h1     40    bbb     H3   1165 0.04411300   1.008000   ; qtot -0.261817
 1166         h1     40    bbb     H4   1166 0.04411300   1.008000   ; qtot -0.217704
 1167         c3     40    bbb     C3   1167 -0.00195300  12.010000   ; qtot -0.219657
 1168         h1     40    bbb     H5   1168 0.05064400   1.008000   ; qtot -0.169013
 1169         h1     40    bbb     H6   1169 0.05064400   1.008000   ; qtot -0.118369
 1170         c3     40    bbb     C4   1170 -0.01612100  12.010000   ; qtot -0.134490
 1171         hc     40    bbb     H7   1171 0.04936100   1.008000   ; qtot -0.085129
 1172         hc     40    bbb     H8   1172 0.04936100   1.008000   ; qtot -0.035768
 1173         c3     40    bbb     C5   1173 0.11363000  12.010000   ; qtot 0.077862
 1174         hc     40    bbb     H9   1174 0.06265900   1.008000   ; qtot 0.140521
 1175         hc     40    bbb    H10   1175 0.06265900   1.008000   ; qtot 0.203180
 1176         c3     40    bbb     C6   1176 0.11363000  12.010000   ; qtot 0.316810
 1177         hc     40    bbb    H11   1177 0.06265900   1.008000   ; qtot 0.379469
 1178         hc     40    bbb    H12   1178 0.06265900   1.008000   ; qtot 0.442128
 1179         c3     40    bbb     C7   1179 0.05858200  12.010000   ; qtot 0.500710
 1180         h1     40    bbb    H13   1180 0.06123400   1.008000   ; qtot 0.561944
 1181         h1     40    bbb    H14   1181 0.06123400   1.008000   ; qtot 0.623178
 1182         c3     40    bbb     C8   1182 -0.72423400  12.010000   ; qtot -0.101056
 1183         h1     40    bbb    H15   1183 0.25637600   1.008000   ; qtot 0.155320
 1184         h1     40    bbb    H16   1184 0.25637600   1.008000   ; qtot 0.411696
 1185         c3     40    bbb     C9   1185 -0.72423400  12.010000   ; qtot -0.312538
 1186         h1     40    bbb    H17   1186 0.25637600   1.008000   ; qtot -0.056162
 1187         h1     40    bbb    H18   1187 0.25637600   1.008000   ; qtot 0.200214
 1188         os     40    bbb     O1   1188 -0.20025300  16.000000   ; qtot -0.000039
; residue   41 bbb rtp bbb q -0.0
 1189         n3     41    bbb     N1   1189 -0.59685800  14.010000   ; qtot -0.596897
 1190         c3     41    bbb     C1   1190 0.10137000  12.010000   ; qtot -0.495527
 1191         h1     41    bbb     H1   1191 0.04411300   1.008000   ; qtot -0.451414
 1192         h1     41    bbb     H2   1192 0.04411300   1.008000   ; qtot -0.407301
 1193         c3     41    bbb     C2   1193 0.10137000  12.010000   ; qtot -0.305931
 1194         h1     41    bbb     H3   1194 0.04411300   1.008000   ; qtot -0.261818
 1195         h1     41    bbb     H4   1195 0.04411300   1.008000   ; qtot -0.217705
 1196         c3     41    bbb     C3   1196 -0.00195300  12.010000   ; qtot -0.219658
 1197         h1     41    bbb     H5   1197 0.05064400   1.008000   ; qtot -0.169014
 1198         h1     41    bbb     H6   1198 0.05064400   1.008000   ; qtot -0.118370
 1199         c3     41    bbb     C4   1199 -0.01612100  12.010000   ; qtot -0.134491
 1200         hc     41    bbb     H7   1200 0.04936100   1.008000   ; qtot -0.085130
 1201         hc     41    bbb     H8   1201 0.04936100   1.008000   ; qtot -0.035769
 1202         c3     41    bbb     C5   1202 0.11363000  12.010000   ; qtot 0.077861
 1203         hc     41    bbb     H9   1203 0.06265900   1.008000   ; qtot 0.140520
 1204         hc     41    bbb    H10   1204 0.06265900   1.008000   ; qtot 0.203179
 1205         c3     41    bbb     C6   1205 0.11363000  12.010000   ; qtot 0.316809
 1206         hc     41    bbb    H11   1206 0.06265900   1.008000   ; qtot 0.379468
 1207         hc     41    bbb    H12   1207 0.06265900   1.008000   ; qtot 0.442127
 1208         c3     41    bbb     C7   1208 0.05858200  12.010000   ; qtot 0.500709
 1209         h1     41    bbb    H13   1209 0.06123400   1.008000   ; qtot 0.561943
 1210         h1     41    bbb    H14   1210 0.06123400   1.008000   ; qtot 0.623177
 1211         c3     41    bbb     C8   1211 -0.72423400  12.010000   ; qtot -0.101057
 1212         h1     41    bbb    H15   1212 0.25637600   1.008000   ; qtot 0.155319
 1213         h1     41    bbb    H16   1213 0.25637600   1.008000   ; qtot 0.411695
 1214         c3     41    bbb     C9   1214 -0.72423400  12.010000   ; qtot -0.312539
 1215         h1     41    bbb    H17   1215 0.25637600   1.008000   ; qtot -0.056163
 1216         h1     41    bbb    H18   1216 0.25637600   1.008000   ; qtot 0.200213
 1217         os     41    bbb     O1   1217 -0.20025300  16.000000   ; qtot -0.000040
; residue   42 bbb rtp bbb q -0.0
 1218         n3     42    bbb     N1   1218 -0.59685800  14.010000   ; qtot -0.596898
 1219         c3     42    bbb     C1   1219 0.10137000  12.010000   ; qtot -0.495528
 1220         h1     42    bbb     H1   1220 0.04411300   1.008000   ; qtot -0.451415
 1221         h1     42    bbb     H2   1221 0.04411300   1.008000   ; qtot -0.407302
 1222         c3     42    bbb     C2   1222 0.10137000  12.010000   ; qtot -0.305932
 1223         h1     42    bbb     H3   1223 0.04411300   1.008000   ; qtot -0.261819
 1224         h1     42    bbb     H4   1224 0.04411300   1.008000   ; qtot -0.217706
 1225         c3     42    bbb     C3   1225 -0.00195300  12.010000   ; qtot -0.219659
 1226         h1     42    bbb     H5   1226 0.05064400   1.008000   ; qtot -0.169015
 1227         h1     42    bbb     H6   1227 0.05064400   1.008000   ; qtot -0.118371
 1228         c3     42    bbb     C4   1228 -0.01612100  12.010000   ; qtot -0.134492
 1229         hc     42    bbb     H7   1229 0.04936100   1.008000   ; qtot -0.085131
 1230         hc     42    bbb     H8   1230 0.04936100   1.008000   ; qtot -0.035770
 1231         c3     42    bbb     C5   1231 0.11363000  12.010000   ; qtot 0.077860
 1232         hc     42    bbb     H9   1232 0.06265900   1.008000   ; qtot 0.140519
 1233         hc     42    bbb    H10   1233 0.06265900   1.008000   ; qtot 0.203178
 1234         c3     42    bbb     C6   1234 0.11363000  12.010000   ; qtot 0.316808
 1235         hc     42    bbb    H11   1235 0.06265900   1.008000   ; qtot 0.379467
 1236         hc     42    bbb    H12   1236 0.06265900   1.008000   ; qtot 0.442126
 1237         c3     42    bbb     C7   1237 0.05858200  12.010000   ; qtot 0.500708
 1238         h1     42    bbb    H13   1238 0.06123400   1.008000   ; qtot 0.561942
 1239         h1     42    bbb    H14   1239 0.06123400   1.008000   ; qtot 0.623176
 1240         c3     42    bbb     C8   1240 -0.72423400  12.010000   ; qtot -0.101058
 1241         h1     42    bbb    H15   1241 0.25637600   1.008000   ; qtot 0.155318
 1242         h1     42    bbb    H16   1242 0.25637600   1.008000   ; qtot 0.411694
 1243         c3     42    bbb     C9   1243 -0.72423400  12.010000   ; qtot -0.312540
 1244         h1     42    bbb    H17   1244 0.25637600   1.008000   ; qtot -0.056164
 1245         h1     42    bbb    H18   1245 0.25637600   1.008000   ; qtot 0.200212
 1246         os     42    bbb     O1   1246 -0.20025300  16.000000   ; qtot -0.000041
; residue   43 bbb rtp bbb q -0.0
 1247         n3     43    bbb     N1   1247 -0.59685800  14.010000   ; qtot -0.596899
 1248         c3     43    bbb     C1   1248 0.10137000  12.010000   ; qtot -0.495529
 1249         h1     43    bbb     H1   1249 0.04411300   1.008000   ; qtot -0.451416
 1250         h1     43    bbb     H2   1250 0.04411300   1.008000   ; qtot -0.407303
 1251         c3     43    bbb     C2   1251 0.10137000  12.010000   ; qtot -0.305933
 1252         h1     43    bbb     H3   1252 0.04411300   1.008000   ; qtot -0.261820
 1253         h1     43    bbb     H4   1253 0.04411300   1.008000   ; qtot -0.217707
 1254         c3     43    bbb     C3   1254 -0.00195300  12.010000   ; qtot -0.219660
 1255         h1     43    bbb     H5   1255 0.05064400   1.008000   ; qtot -0.169016
 1256         h1     43    bbb     H6   1256 0.05064400   1.008000   ; qtot -0.118372
 1257         c3     43    bbb     C4   1257 -0.01612100  12.010000   ; qtot -0.134493
 1258         hc     43    bbb     H7   1258 0.04936100   1.008000   ; qtot -0.085132
 1259         hc     43    bbb     H8   1259 0.04936100   1.008000   ; qtot -0.035771
 1260         c3     43    bbb     C5   1260 0.11363000  12.010000   ; qtot 0.077859
 1261         hc     43    bbb     H9   1261 0.06265900   1.008000   ; qtot 0.140518
 1262         hc     43    bbb    H10   1262 0.06265900   1.008000   ; qtot 0.203177
 1263         c3     43    bbb     C6   1263 0.11363000  12.010000   ; qtot 0.316807
 1264         hc     43    bbb    H11   1264 0.06265900   1.008000   ; qtot 0.379466
 1265         hc     43    bbb    H12   1265 0.06265900   1.008000   ; qtot 0.442125
 1266         c3     43    bbb     C7   1266 0.05858200  12.010000   ; qtot 0.500707
 1267         h1     43    bbb    H13   1267 0.06123400   1.008000   ; qtot 0.561941
 1268         h1     43    bbb    H14   1268 0.06123400   1.008000   ; qtot 0.623175
 1269         c3     43    bbb     C8   1269 -0.72423400  12.010000   ; qtot -0.101059
 1270         h1     43    bbb    H15   1270 0.25637600   1.008000   ; qtot 0.155317
 1271         h1     43    bbb    H16   1271 0.25637600   1.008000   ; qtot 0.411693
 1272         c3     43    bbb     C9   1272 -0.72423400  12.010000   ; qtot -0.312541
 1273         h1     43    bbb    H17   1273 0.25637600   1.008000   ; qtot -0.056165
 1274         h1     43    bbb    H18   1274 0.25637600   1.008000   ; qtot 0.200211
 1275         os     43    bbb     O1   1275 -0.20025300  16.000000   ; qtot -0.000042
; residue   44 bbb rtp bbb q -0.0
 1276         n3     44    bbb     N1   1276 -0.59685800  14.010000   ; qtot -0.596900
 1277         c3     44    bbb     C1   1277 0.10137000  12.010000   ; qtot -0.495530
 1278         h1     44    bbb     H1   1278 0.04411300   1.008000   ; qtot -0.451417
 1279         h1     44    bbb     H2   1279 0.04411300   1.008000   ; qtot -0.407304
 1280         c3     44    bbb     C2   1280 0.10137000  12.010000   ; qtot -0.305934
 1281         h1     44    bbb     H3   1281 0.04411300   1.008000   ; qtot -0.261821
 1282         h1     44    bbb     H4   1282 0.04411300   1.008000   ; qtot -0.217708
 1283         c3     44    bbb     C3   1283 -0.00195300  12.010000   ; qtot -0.219661
 1284         h1     44    bbb     H5   1284 0.05064400   1.008000   ; qtot -0.169017
 1285         h1     44    bbb     H6   1285 0.05064400   1.008000   ; qtot -0.118373
 1286         c3     44    bbb     C4   1286 -0.01612100  12.010000   ; qtot -0.134494
 1287         hc     44    bbb     H7   1287 0.04936100   1.008000   ; qtot -0.085133
 1288         hc     44    bbb     H8   1288 0.04936100   1.008000   ; qtot -0.035772
 1289         c3     44    bbb     C5   1289 0.11363000  12.010000   ; qtot 0.077858
 1290         hc     44    bbb     H9   1290 0.06265900   1.008000   ; qtot 0.140517
 1291         hc     44    bbb    H10   1291 0.06265900   1.008000   ; qtot 0.203176
 1292         c3     44    bbb     C6   1292 0.11363000  12.010000   ; qtot 0.316806
 1293         hc     44    bbb    H11   1293 0.06265900   1.008000   ; qtot 0.379465
 1294         hc     44    bbb    H12   1294 0.06265900   1.008000   ; qtot 0.442124
 1295         c3     44    bbb     C7   1295 0.05858200  12.010000   ; qtot 0.500706
 1296         h1     44    bbb    H13   1296 0.06123400   1.008000   ; qtot 0.561940
 1297         h1     44    bbb    H14   1297 0.06123400   1.008000   ; qtot 0.623174
 1298         c3     44    bbb     C8   1298 -0.72423400  12.010000   ; qtot -0.101060
 1299         h1     44    bbb    H15   1299 0.25637600   1.008000   ; qtot 0.155316
 1300         h1     44    bbb    H16   1300 0.25637600   1.008000   ; qtot 0.411692
 1301         c3     44    bbb     C9   1301 -0.72423400  12.010000   ; qtot -0.312542
 1302         h1     44    bbb    H17   1302 0.25637600   1.008000   ; qtot -0.056166
 1303         h1     44    bbb    H18   1303 0.25637600   1.008000   ; qtot 0.200210
 1304         os     44    bbb     O1   1304 -0.20025300  16.000000   ; qtot -0.000043
; residue   45 bbb rtp bbb q -0.0
 1305         n3     45    bbb     N1   1305 -0.59685800  14.010000   ; qtot -0.596901
 1306         c3     45    bbb     C1   1306 0.10137000  12.010000   ; qtot -0.495531
 1307         h1     45    bbb     H1   1307 0.04411300   1.008000   ; qtot -0.451418
 1308         h1     45    bbb     H2   1308 0.04411300   1.008000   ; qtot -0.407305
 1309         c3     45    bbb     C2   1309 0.10137000  12.010000   ; qtot -0.305935
 1310         h1     45    bbb     H3   1310 0.04411300   1.008000   ; qtot -0.261822
 1311         h1     45    bbb     H4   1311 0.04411300   1.008000   ; qtot -0.217709
 1312         c3     45    bbb     C3   1312 -0.00195300  12.010000   ; qtot -0.219662
 1313         h1     45    bbb     H5   1313 0.05064400   1.008000   ; qtot -0.169018
 1314         h1     45    bbb     H6   1314 0.05064400   1.008000   ; qtot -0.118374
 1315         c3     45    bbb     C4   1315 -0.01612100  12.010000   ; qtot -0.134495
 1316         hc     45    bbb     H7   1316 0.04936100   1.008000   ; qtot -0.085134
 1317         hc     45    bbb     H8   1317 0.04936100   1.008000   ; qtot -0.035773
 1318         c3     45    bbb     C5   1318 0.11363000  12.010000   ; qtot 0.077857
 1319         hc     45    bbb     H9   1319 0.06265900   1.008000   ; qtot 0.140516
 1320         hc     45    bbb    H10   1320 0.06265900   1.008000   ; qtot 0.203175
 1321         c3     45    bbb     C6   1321 0.11363000  12.010000   ; qtot 0.316805
 1322         hc     45    bbb    H11   1322 0.06265900   1.008000   ; qtot 0.379464
 1323         hc     45    bbb    H12   1323 0.06265900   1.008000   ; qtot 0.442123
 1324         c3     45    bbb     C7   1324 0.05858200  12.010000   ; qtot 0.500705
 1325         h1     45    bbb    H13   1325 0.06123400   1.008000   ; qtot 0.561939
 1326         h1     45    bbb    H14   1326 0.06123400   1.008000   ; qtot 0.623173
 1327         c3     45    bbb     C8   1327 -0.72423400  12.010000   ; qtot -0.101061
 1328         h1     45    bbb    H15   1328 0.25637600   1.008000   ; qtot 0.155315
 1329         h1     45    bbb    H16   1329 0.25637600   1.008000   ; qtot 0.411691
 1330         c3     45    bbb     C9   1330 -0.72423400  12.010000   ; qtot -0.312543
 1331         h1     45    bbb    H17   1331 0.25637600   1.008000   ; qtot -0.056167
 1332         h1     45    bbb    H18   1332 0.25637600   1.008000   ; qtot 0.200209
 1333         os     45    bbb     O1   1333 -0.20025300  16.000000   ; qtot -0.000044
; residue   46 bbb rtp bbb q -0.0
 1334         n3     46    bbb     N1   1334 -0.59685800  14.010000   ; qtot -0.596902
 1335         c3     46    bbb     C1   1335 0.10137000  12.010000   ; qtot -0.495532
 1336         h1     46    bbb     H1   1336 0.04411300   1.008000   ; qtot -0.451419
 1337         h1     46    bbb     H2   1337 0.04411300   1.008000   ; qtot -0.407306
 1338         c3     46    bbb     C2   1338 0.10137000  12.010000   ; qtot -0.305936
 1339         h1     46    bbb     H3   1339 0.04411300   1.008000   ; qtot -0.261823
 1340         h1     46    bbb     H4   1340 0.04411300   1.008000   ; qtot -0.217710
 1341         c3     46    bbb     C3   1341 -0.00195300  12.010000   ; qtot -0.219663
 1342         h1     46    bbb     H5   1342 0.05064400   1.008000   ; qtot -0.169019
 1343         h1     46    bbb     H6   1343 0.05064400   1.008000   ; qtot -0.118375
 1344         c3     46    bbb     C4   1344 -0.01612100  12.010000   ; qtot -0.134496
 1345         hc     46    bbb     H7   1345 0.04936100   1.008000   ; qtot -0.085135
 1346         hc     46    bbb     H8   1346 0.04936100   1.008000   ; qtot -0.035774
 1347         c3     46    bbb     C5   1347 0.11363000  12.010000   ; qtot 0.077856
 1348         hc     46    bbb     H9   1348 0.06265900   1.008000   ; qtot 0.140515
 1349         hc     46    bbb    H10   1349 0.06265900   1.008000   ; qtot 0.203174
 1350         c3     46    bbb     C6   1350 0.11363000  12.010000   ; qtot 0.316804
 1351         hc     46    bbb    H11   1351 0.06265900   1.008000   ; qtot 0.379463
 1352         hc     46    bbb    H12   1352 0.06265900   1.008000   ; qtot 0.442122
 1353         c3     46    bbb     C7   1353 0.05858200  12.010000   ; qtot 0.500704
 1354         h1     46    bbb    H13   1354 0.06123400   1.008000   ; qtot 0.561938
 1355         h1     46    bbb    H14   1355 0.06123400   1.008000   ; qtot 0.623172
 1356         c3     46    bbb     C8   1356 -0.72423400  12.010000   ; qtot -0.101062
 1357         h1     46    bbb    H15   1357 0.25637600   1.008000   ; qtot 0.155314
 1358         h1     46    bbb    H16   1358 0.25637600   1.008000   ; qtot 0.411690
 1359         c3     46    bbb     C9   1359 -0.72423400  12.010000   ; qtot -0.312544
 1360         h1     46    bbb    H17   1360 0.25637600   1.008000   ; qtot -0.056168
 1361         h1     46    bbb    H18   1361 0.25637600   1.008000   ; qtot 0.200208
 1362         os     46    bbb     O1   1362 -0.20025300  16.000000   ; qtot -0.000045
; residue   47 bbb rtp bbb q -0.0
 1363         n3     47    bbb     N1   1363 -0.59685800  14.010000   ; qtot -0.596903
 1364         c3     47    bbb     C1   1364 0.10137000  12.010000   ; qtot -0.495533
 1365         h1     47    bbb     H1   1365 0.04411300   1.008000   ; qtot -0.451420
 1366         h1     47    bbb     H2   1366 0.04411300   1.008000   ; qtot -0.407307
 1367         c3     47    bbb     C2   1367 0.10137000  12.010000   ; qtot -0.305937
 1368         h1     47    bbb     H3   1368 0.04411300   1.008000   ; qtot -0.261824
 1369         h1     47    bbb     H4   1369 0.04411300   1.008000   ; qtot -0.217711
 1370         c3     47    bbb     C3   1370 -0.00195300  12.010000   ; qtot -0.219664
 1371         h1     47    bbb     H5   1371 0.05064400   1.008000   ; qtot -0.169020
 1372         h1     47    bbb     H6   1372 0.05064400   1.008000   ; qtot -0.118376
 1373         c3     47    bbb     C4   1373 -0.01612100  12.010000   ; qtot -0.134497
 1374         hc     47    bbb     H7   1374 0.04936100   1.008000   ; qtot -0.085136
 1375         hc     47    bbb     H8   1375 0.04936100   1.008000   ; qtot -0.035775
 1376         c3     47    bbb     C5   1376 0.11363000  12.010000   ; qtot 0.077855
 1377         hc     47    bbb     H9   1377 0.06265900   1.008000   ; qtot 0.140514
 1378         hc     47    bbb    H10   1378 0.06265900   1.008000   ; qtot 0.203173
 1379         c3     47    bbb     C6   1379 0.11363000  12.010000   ; qtot 0.316803
 1380         hc     47    bbb    H11   1380 0.06265900   1.008000   ; qtot 0.379462
 1381         hc     47    bbb    H12   1381 0.06265900   1.008000   ; qtot 0.442121
 1382         c3     47    bbb     C7   1382 0.05858200  12.010000   ; qtot 0.500703
 1383         h1     47    bbb    H13   1383 0.06123400   1.008000   ; qtot 0.561937
 1384         h1     47    bbb    H14   1384 0.06123400   1.008000   ; qtot 0.623171
 1385         c3     47    bbb     C8   1385 -0.72423400  12.010000   ; qtot -0.101063
 1386         h1     47    bbb    H15   1386 0.25637600   1.008000   ; qtot 0.155313
 1387         h1     47    bbb    H16   1387 0.25637600   1.008000   ; qtot 0.411689
 1388         c3     47    bbb     C9   1388 -0.72423400  12.010000   ; qtot -0.312545
 1389         h1     47    bbb    H17   1389 0.25637600   1.008000   ; qtot -0.056169
 1390         h1     47    bbb    H18   1390 0.25637600   1.008000   ; qtot 0.200207
 1391         os     47    bbb     O1   1391 -0.20025300  16.000000   ; qtot -0.000046
; residue   48 bbb rtp bbb q -0.0
 1392         n3     48    bbb     N1   1392 -0.59685800  14.010000   ; qtot -0.596904
 1393         c3     48    bbb     C1   1393 0.10137000  12.010000   ; qtot -0.495534
 1394         h1     48    bbb     H1   1394 0.04411300   1.008000   ; qtot -0.451421
 1395         h1     48    bbb     H2   1395 0.04411300   1.008000   ; qtot -0.407308
 1396         c3     48    bbb     C2   1396 0.10137000  12.010000   ; qtot -0.305938
 1397         h1     48    bbb     H3   1397 0.04411300   1.008000   ; qtot -0.261825
 1398         h1     48    bbb     H4   1398 0.04411300   1.008000   ; qtot -0.217712
 1399         c3     48    bbb     C3   1399 -0.00195300  12.010000   ; qtot -0.219665
 1400         h1     48    bbb     H5   1400 0.05064400   1.008000   ; qtot -0.169021
 1401         h1     48    bbb     H6   1401 0.05064400   1.008000   ; qtot -0.118377
 1402         c3     48    bbb     C4   1402 -0.01612100  12.010000   ; qtot -0.134498
 1403         hc     48    bbb     H7   1403 0.04936100   1.008000   ; qtot -0.085137
 1404         hc     48    bbb     H8   1404 0.04936100   1.008000   ; qtot -0.035776
 1405         c3     48    bbb     C5   1405 0.11363000  12.010000   ; qtot 0.077854
 1406         hc     48    bbb     H9   1406 0.06265900   1.008000   ; qtot 0.140513
 1407         hc     48    bbb    H10   1407 0.06265900   1.008000   ; qtot 0.203172
 1408         c3     48    bbb     C6   1408 0.11363000  12.010000   ; qtot 0.316802
 1409         hc     48    bbb    H11   1409 0.06265900   1.008000   ; qtot 0.379461
 1410         hc     48    bbb    H12   1410 0.06265900   1.008000   ; qtot 0.442120
 1411         c3     48    bbb     C7   1411 0.05858200  12.010000   ; qtot 0.500702
 1412         h1     48    bbb    H13   1412 0.06123400   1.008000   ; qtot 0.561936
 1413         h1     48    bbb    H14   1413 0.06123400   1.008000   ; qtot 0.623170
 1414         c3     48    bbb     C8   1414 -0.72423400  12.010000   ; qtot -0.101064
 1415         h1     48    bbb    H15   1415 0.25637600   1.008000   ; qtot 0.155312
 1416         h1     48    bbb    H16   1416 0.25637600   1.008000   ; qtot 0.411688
 1417         c3     48    bbb     C9   1417 -0.72423400  12.010000   ; qtot -0.312546
 1418         h1     48    bbb    H17   1418 0.25637600   1.008000   ; qtot -0.056170
 1419         h1     48    bbb    H18   1419 0.25637600   1.008000   ; qtot 0.200206
 1420         os     48    bbb     O1   1420 -0.20025300  16.000000   ; qtot -0.000047
; residue   49 bbb rtp bbb q -0.0
 1421         n3     49    bbb     N1   1421 -0.59685800  14.010000   ; qtot -0.596905
 1422         c3     49    bbb     C1   1422 0.10137000  12.010000   ; qtot -0.495535
 1423         h1     49    bbb     H1   1423 0.04411300   1.008000   ; qtot -0.451422
 1424         h1     49    bbb     H2   1424 0.04411300   1.008000   ; qtot -0.407309
 1425         c3     49    bbb     C2   1425 0.10137000  12.010000   ; qtot -0.305939
 1426         h1     49    bbb     H3   1426 0.04411300   1.008000   ; qtot -0.261826
 1427         h1     49    bbb     H4   1427 0.04411300   1.008000   ; qtot -0.217713
 1428         c3     49    bbb     C3   1428 -0.00195300  12.010000   ; qtot -0.219666
 1429         h1     49    bbb     H5   1429 0.05064400   1.008000   ; qtot -0.169022
 1430         h1     49    bbb     H6   1430 0.05064400   1.008000   ; qtot -0.118378
 1431         c3     49    bbb     C4   1431 -0.01612100  12.010000   ; qtot -0.134499
 1432         hc     49    bbb     H7   1432 0.04936100   1.008000   ; qtot -0.085138
 1433         hc     49    bbb     H8   1433 0.04936100   1.008000   ; qtot -0.035777
 1434         c3     49    bbb     C5   1434 0.11363000  12.010000   ; qtot 0.077853
 1435         hc     49    bbb     H9   1435 0.06265900   1.008000   ; qtot 0.140512
 1436         hc     49    bbb    H10   1436 0.06265900   1.008000   ; qtot 0.203171
 1437         c3     49    bbb     C6   1437 0.11363000  12.010000   ; qtot 0.316801
 1438         hc     49    bbb    H11   1438 0.06265900   1.008000   ; qtot 0.379460
 1439         hc     49    bbb    H12   1439 0.06265900   1.008000   ; qtot 0.442119
 1440         c3     49    bbb     C7   1440 0.05858200  12.010000   ; qtot 0.500701
 1441         h1     49    bbb    H13   1441 0.06123400   1.008000   ; qtot 0.561935
 1442         h1     49    bbb    H14   1442 0.06123400   1.008000   ; qtot 0.623169
 1443         c3     49    bbb     C8   1443 -0.72423400  12.010000   ; qtot -0.101065
 1444         h1     49    bbb    H15   1444 0.25637600   1.008000   ; qtot 0.155311
 1445         h1     49    bbb    H16   1445 0.25637600   1.008000   ; qtot 0.411687
 1446         c3     49    bbb     C9   1446 -0.72423400  12.010000   ; qtot -0.312547
 1447         h1     49    bbb    H17   1447 0.25637600   1.008000   ; qtot -0.056171
 1448         h1     49    bbb    H18   1448 0.25637600   1.008000   ; qtot 0.200205
 1449         os     49    bbb     O1   1449 -0.20025300  16.000000   ; qtot -0.000048
; residue   50 bbb rtp bbb q -0.0
 1450         n3     50    bbb     N1   1450 -0.59685800  14.010000   ; qtot -0.596906
 1451         c3     50    bbb     C1   1451 0.10137000  12.010000   ; qtot -0.495536
 1452         h1     50    bbb     H1   1452 0.04411300   1.008000   ; qtot -0.451423
 1453         h1     50    bbb     H2   1453 0.04411300   1.008000   ; qtot -0.407310
 1454         c3     50    bbb     C2   1454 0.10137000  12.010000   ; qtot -0.305940
 1455         h1     50    bbb     H3   1455 0.04411300   1.008000   ; qtot -0.261827
 1456         h1     50    bbb     H4   1456 0.04411300   1.008000   ; qtot -0.217714
 1457         c3     50    bbb     C3   1457 -0.00195300  12.010000   ; qtot -0.219667
 1458         h1     50    bbb     H5   1458 0.05064400   1.008000   ; qtot -0.169023
 1459         h1     50    bbb     H6   1459 0.05064400   1.008000   ; qtot -0.118379
 1460         c3     50    bbb     C4   1460 -0.01612100  12.010000   ; qtot -0.134500
 1461         hc     50    bbb     H7   1461 0.04936100   1.008000   ; qtot -0.085139
 1462         hc     50    bbb     H8   1462 0.04936100   1.008000   ; qtot -0.035778
 1463         c3     50    bbb     C5   1463 0.11363000  12.010000   ; qtot 0.077852
 1464         hc     50    bbb     H9   1464 0.06265900   1.008000   ; qtot 0.140511
 1465         hc     50    bbb    H10   1465 0.06265900   1.008000   ; qtot 0.203170
 1466         c3     50    bbb     C6   1466 0.11363000  12.010000   ; qtot 0.316800
 1467         hc     50    bbb    H11   1467 0.06265900   1.008000   ; qtot 0.379459
 1468         hc     50    bbb    H12   1468 0.06265900   1.008000   ; qtot 0.442118
 1469         c3     50    bbb     C7   1469 0.05858200  12.010000   ; qtot 0.500700
 1470         h1     50    bbb    H13   1470 0.06123400   1.008000   ; qtot 0.561934
 1471         h1     50    bbb    H14   1471 0.06123400   1.008000   ; qtot 0.623168
 1472         c3     50    bbb     C8   1472 -0.72423400  12.010000   ; qtot -0.101066
 1473         h1     50    bbb    H15   1473 0.25637600   1.008000   ; qtot 0.155310
 1474         h1     50    bbb    H16   1474 0.25637600   1.008000   ; qtot 0.411686
 1475         c3     50    bbb     C9   1475 -0.72423400  12.010000   ; qtot -0.312548
 1476         h1     50    bbb    H17   1476 0.25637600   1.008000   ; qtot -0.056172
 1477         h1     50    bbb    H18   1477 0.25637600   1.008000   ; qtot 0.200204
 1478         os     50    bbb     O1   1478 -0.20025300  16.000000   ; qtot -0.000049
; residue   51 bbb rtp bbb q -0.0
 1479         n3     51    bbb     N1   1479 -0.59685800  14.010000   ; qtot -0.596907
 1480         c3     51    bbb     C1   1480 0.10137000  12.010000   ; qtot -0.495537
 1481         h1     51    bbb     H1   1481 0.04411300   1.008000   ; qtot -0.451424
 1482         h1     51    bbb     H2   1482 0.04411300   1.008000   ; qtot -0.407311
 1483         c3     51    bbb     C2   1483 0.10137000  12.010000   ; qtot -0.305941
 1484         h1     51    bbb     H3   1484 0.04411300   1.008000   ; qtot -0.261828
 1485         h1     51    bbb     H4   1485 0.04411300   1.008000   ; qtot -0.217715
 1486         c3     51    bbb     C3   1486 -0.00195300  12.010000   ; qtot -0.219668
 1487         h1     51    bbb     H5   1487 0.05064400   1.008000   ; qtot -0.169024
 1488         h1     51    bbb     H6   1488 0.05064400   1.008000   ; qtot -0.118380
 1489         c3     51    bbb     C4   1489 -0.01612100  12.010000   ; qtot -0.134501
 1490         hc     51    bbb     H7   1490 0.04936100   1.008000   ; qtot -0.085140
 1491         hc     51    bbb     H8   1491 0.04936100   1.008000   ; qtot -0.035779
 1492         c3     51    bbb     C5   1492 0.11363000  12.010000   ; qtot 0.077851
 1493         hc     51    bbb     H9   1493 0.06265900   1.008000   ; qtot 0.140510
 1494         hc     51    bbb    H10   1494 0.06265900   1.008000   ; qtot 0.203169
 1495         c3     51    bbb     C6   1495 0.11363000  12.010000   ; qtot 0.316799
 1496         hc     51    bbb    H11   1496 0.06265900   1.008000   ; qtot 0.379458
 1497         hc     51    bbb    H12   1497 0.06265900   1.008000   ; qtot 0.442117
 1498         c3     51    bbb     C7   1498 0.05858200  12.010000   ; qtot 0.500699
 1499         h1     51    bbb    H13   1499 0.06123400   1.008000   ; qtot 0.561933
 1500         h1     51    bbb    H14   1500 0.06123400   1.008000   ; qtot 0.623167
 1501         c3     51    bbb     C8   1501 -0.72423400  12.010000   ; qtot -0.101067
 1502         h1     51    bbb    H15   1502 0.25637600   1.008000   ; qtot 0.155309
 1503         h1     51    bbb    H16   1503 0.25637600   1.008000   ; qtot 0.411685
 1504         c3     51    bbb     C9   1504 -0.72423400  12.010000   ; qtot -0.312549
 1505         h1     51    bbb    H17   1505 0.25637600   1.008000   ; qtot -0.056173
 1506         h1     51    bbb    H18   1506 0.25637600   1.008000   ; qtot 0.200203
 1507         os     51    bbb     O1   1507 -0.20025300  16.000000   ; qtot -0.000050
; residue   52 bbb rtp bbb q -0.0
 1508         n3     52    bbb     N1   1508 -0.59685800  14.010000   ; qtot -0.596908
 1509         c3     52    bbb     C1   1509 0.10137000  12.010000   ; qtot -0.495538
 1510         h1     52    bbb     H1   1510 0.04411300   1.008000   ; qtot -0.451425
 1511         h1     52    bbb     H2   1511 0.04411300   1.008000   ; qtot -0.407312
 1512         c3     52    bbb     C2   1512 0.10137000  12.010000   ; qtot -0.305942
 1513         h1     52    bbb     H3   1513 0.04411300   1.008000   ; qtot -0.261829
 1514         h1     52    bbb     H4   1514 0.04411300   1.008000   ; qtot -0.217716
 1515         c3     52    bbb     C3   1515 -0.00195300  12.010000   ; qtot -0.219669
 1516         h1     52    bbb     H5   1516 0.05064400   1.008000   ; qtot -0.169025
 1517         h1     52    bbb     H6   1517 0.05064400   1.008000   ; qtot -0.118381
 1518         c3     52    bbb     C4   1518 -0.01612100  12.010000   ; qtot -0.134502
 1519         hc     52    bbb     H7   1519 0.04936100   1.008000   ; qtot -0.085141
 1520         hc     52    bbb     H8   1520 0.04936100   1.008000   ; qtot -0.035780
 1521         c3     52    bbb     C5   1521 0.11363000  12.010000   ; qtot 0.077850
 1522         hc     52    bbb     H9   1522 0.06265900   1.008000   ; qtot 0.140509
 1523         hc     52    bbb    H10   1523 0.06265900   1.008000   ; qtot 0.203168
 1524         c3     52    bbb     C6   1524 0.11363000  12.010000   ; qtot 0.316798
 1525         hc     52    bbb    H11   1525 0.06265900   1.008000   ; qtot 0.379457
 1526         hc     52    bbb    H12   1526 0.06265900   1.008000   ; qtot 0.442116
 1527         c3     52    bbb     C7   1527 0.05858200  12.010000   ; qtot 0.500698
 1528         h1     52    bbb    H13   1528 0.06123400   1.008000   ; qtot 0.561932
 1529         h1     52    bbb    H14   1529 0.06123400   1.008000   ; qtot 0.623166
 1530         c3     52    bbb     C8   1530 -0.72423400  12.010000   ; qtot -0.101068
 1531         h1     52    bbb    H15   1531 0.25637600   1.008000   ; qtot 0.155308
 1532         h1     52    bbb    H16   1532 0.25637600   1.008000   ; qtot 0.411684
 1533         c3     52    bbb     C9   1533 -0.72423400  12.010000   ; qtot -0.312550
 1534         h1     52    bbb    H17   1534 0.25637600   1.008000   ; qtot -0.056174
 1535         h1     52    bbb    H18   1535 0.25637600   1.008000   ; qtot 0.200202
 1536         os     52    bbb     O1   1536 -0.20025300  16.000000   ; qtot -0.000051
; residue   53 bbb rtp bbb q -0.0
 1537         n3     53    bbb     N1   1537 -0.59685800  14.010000   ; qtot -0.596909
 1538         c3     53    bbb     C1   1538 0.10137000  12.010000   ; qtot -0.495539
 1539         h1     53    bbb     H1   1539 0.04411300   1.008000   ; qtot -0.451426
 1540         h1     53    bbb     H2   1540 0.04411300   1.008000   ; qtot -0.407313
 1541         c3     53    bbb     C2   1541 0.10137000  12.010000   ; qtot -0.305943
 1542         h1     53    bbb     H3   1542 0.04411300   1.008000   ; qtot -0.261830
 1543         h1     53    bbb     H4   1543 0.04411300   1.008000   ; qtot -0.217717
 1544         c3     53    bbb     C3   1544 -0.00195300  12.010000   ; qtot -0.219670
 1545         h1     53    bbb     H5   1545 0.05064400   1.008000   ; qtot -0.169026
 1546         h1     53    bbb     H6   1546 0.05064400   1.008000   ; qtot -0.118382
 1547         c3     53    bbb     C4   1547 -0.01612100  12.010000   ; qtot -0.134503
 1548         hc     53    bbb     H7   1548 0.04936100   1.008000   ; qtot -0.085142
 1549         hc     53    bbb     H8   1549 0.04936100   1.008000   ; qtot -0.035781
 1550         c3     53    bbb     C5   1550 0.11363000  12.010000   ; qtot 0.077849
 1551         hc     53    bbb     H9   1551 0.06265900   1.008000   ; qtot 0.140508
 1552         hc     53    bbb    H10   1552 0.06265900   1.008000   ; qtot 0.203167
 1553         c3     53    bbb     C6   1553 0.11363000  12.010000   ; qtot 0.316797
 1554         hc     53    bbb    H11   1554 0.06265900   1.008000   ; qtot 0.379456
 1555         hc     53    bbb    H12   1555 0.06265900   1.008000   ; qtot 0.442115
 1556         c3     53    bbb     C7   1556 0.05858200  12.010000   ; qtot 0.500697
 1557         h1     53    bbb    H13   1557 0.06123400   1.008000   ; qtot 0.561931
 1558         h1     53    bbb    H14   1558 0.06123400   1.008000   ; qtot 0.623165
 1559         c3     53    bbb     C8   1559 -0.72423400  12.010000   ; qtot -0.101069
 1560         h1     53    bbb    H15   1560 0.25637600   1.008000   ; qtot 0.155307
 1561         h1     53    bbb    H16   1561 0.25637600   1.008000   ; qtot 0.411683
 1562         c3     53    bbb     C9   1562 -0.72423400  12.010000   ; qtot -0.312551
 1563         h1     53    bbb    H17   1563 0.25637600   1.008000   ; qtot -0.056175
 1564         h1     53    bbb    H18   1564 0.25637600   1.008000   ; qtot 0.200201
 1565         os     53    bbb     O1   1565 -0.20025300  16.000000   ; qtot -0.000052
; residue   54 bbb rtp bbb q -0.0
 1566         n3     54    bbb     N1   1566 -0.59685800  14.010000   ; qtot -0.596910
 1567         c3     54    bbb     C1   1567 0.10137000  12.010000   ; qtot -0.495540
 1568         h1     54    bbb     H1   1568 0.04411300   1.008000   ; qtot -0.451427
 1569         h1     54    bbb     H2   1569 0.04411300   1.008000   ; qtot -0.407314
 1570         c3     54    bbb     C2   1570 0.10137000  12.010000   ; qtot -0.305944
 1571         h1     54    bbb     H3   1571 0.04411300   1.008000   ; qtot -0.261831
 1572         h1     54    bbb     H4   1572 0.04411300   1.008000   ; qtot -0.217718
 1573         c3     54    bbb     C3   1573 -0.00195300  12.010000   ; qtot -0.219671
 1574         h1     54    bbb     H5   1574 0.05064400   1.008000   ; qtot -0.169027
 1575         h1     54    bbb     H6   1575 0.05064400   1.008000   ; qtot -0.118383
 1576         c3     54    bbb     C4   1576 -0.01612100  12.010000   ; qtot -0.134504
 1577         hc     54    bbb     H7   1577 0.04936100   1.008000   ; qtot -0.085143
 1578         hc     54    bbb     H8   1578 0.04936100   1.008000   ; qtot -0.035782
 1579         c3     54    bbb     C5   1579 0.11363000  12.010000   ; qtot 0.077848
 1580         hc     54    bbb     H9   1580 0.06265900   1.008000   ; qtot 0.140507
 1581         hc     54    bbb    H10   1581 0.06265900   1.008000   ; qtot 0.203166
 1582         c3     54    bbb     C6   1582 0.11363000  12.010000   ; qtot 0.316796
 1583         hc     54    bbb    H11   1583 0.06265900   1.008000   ; qtot 0.379455
 1584         hc     54    bbb    H12   1584 0.06265900   1.008000   ; qtot 0.442114
 1585         c3     54    bbb     C7   1585 0.05858200  12.010000   ; qtot 0.500696
 1586         h1     54    bbb    H13   1586 0.06123400   1.008000   ; qtot 0.561930
 1587         h1     54    bbb    H14   1587 0.06123400   1.008000   ; qtot 0.623164
 1588         c3     54    bbb     C8   1588 -0.72423400  12.010000   ; qtot -0.101070
 1589         h1     54    bbb    H15   1589 0.25637600   1.008000   ; qtot 0.155306
 1590         h1     54    bbb    H16   1590 0.25637600   1.008000   ; qtot 0.411682
 1591         c3     54    bbb     C9   1591 -0.72423400  12.010000   ; qtot -0.312552
 1592         h1     54    bbb    H17   1592 0.25637600   1.008000   ; qtot -0.056176
 1593         h1     54    bbb    H18   1593 0.25637600   1.008000   ; qtot 0.200200
 1594         os     54    bbb     O1   1594 -0.20025300  16.000000   ; qtot -0.000053
; residue   55 bbb rtp bbb q -0.0
 1595         n3     55    bbb     N1   1595 -0.59685800  14.010000   ; qtot -0.596911
 1596         c3     55    bbb     C1   1596 0.10137000  12.010000   ; qtot -0.495541
 1597         h1     55    bbb     H1   1597 0.04411300   1.008000   ; qtot -0.451428
 1598         h1     55    bbb     H2   1598 0.04411300   1.008000   ; qtot -0.407315
 1599         c3     55    bbb     C2   1599 0.10137000  12.010000   ; qtot -0.305945
 1600         h1     55    bbb     H3   1600 0.04411300   1.008000   ; qtot -0.261832
 1601         h1     55    bbb     H4   1601 0.04411300   1.008000   ; qtot -0.217719
 1602         c3     55    bbb     C3   1602 -0.00195300  12.010000   ; qtot -0.219672
 1603         h1     55    bbb     H5   1603 0.05064400   1.008000   ; qtot -0.169028
 1604         h1     55    bbb     H6   1604 0.05064400   1.008000   ; qtot -0.118384
 1605         c3     55    bbb     C4   1605 -0.01612100  12.010000   ; qtot -0.134505
 1606         hc     55    bbb     H7   1606 0.04936100   1.008000   ; qtot -0.085144
 1607         hc     55    bbb     H8   1607 0.04936100   1.008000   ; qtot -0.035783
 1608         c3     55    bbb     C5   1608 0.11363000  12.010000   ; qtot 0.077847
 1609         hc     55    bbb     H9   1609 0.06265900   1.008000   ; qtot 0.140506
 1610         hc     55    bbb    H10   1610 0.06265900   1.008000   ; qtot 0.203165
 1611         c3     55    bbb     C6   1611 0.11363000  12.010000   ; qtot 0.316795
 1612         hc     55    bbb    H11   1612 0.06265900   1.008000   ; qtot 0.379454
 1613         hc     55    bbb    H12   1613 0.06265900   1.008000   ; qtot 0.442113
 1614         c3     55    bbb     C7   1614 0.05858200  12.010000   ; qtot 0.500695
 1615         h1     55    bbb    H13   1615 0.06123400   1.008000   ; qtot 0.561929
 1616         h1     55    bbb    H14   1616 0.06123400   1.008000   ; qtot 0.623163
 1617         c3     55    bbb     C8   1617 -0.72423400  12.010000   ; qtot -0.101071
 1618         h1     55    bbb    H15   1618 0.25637600   1.008000   ; qtot 0.155305
 1619         h1     55    bbb    H16   1619 0.25637600   1.008000   ; qtot 0.411681
 1620         c3     55    bbb     C9   1620 -0.72423400  12.010000   ; qtot -0.312553
 1621         h1     55    bbb    H17   1621 0.25637600   1.008000   ; qtot -0.056177
 1622         h1     55    bbb    H18   1622 0.25637600   1.008000   ; qtot 0.200199
 1623         os     55    bbb     O1   1623 -0.20025300  16.000000   ; qtot -0.000054
; residue   56 bbb rtp bbb q -0.0
 1624         n3     56    bbb     N1   1624 -0.59685800  14.010000   ; qtot -0.596912
 1625         c3     56    bbb     C1   1625 0.10137000  12.010000   ; qtot -0.495542
 1626         h1     56    bbb     H1   1626 0.04411300   1.008000   ; qtot -0.451429
 1627         h1     56    bbb     H2   1627 0.04411300   1.008000   ; qtot -0.407316
 1628         c3     56    bbb     C2   1628 0.10137000  12.010000   ; qtot -0.305946
 1629         h1     56    bbb     H3   1629 0.04411300   1.008000   ; qtot -0.261833
 1630         h1     56    bbb     H4   1630 0.04411300   1.008000   ; qtot -0.217720
 1631         c3     56    bbb     C3   1631 -0.00195300  12.010000   ; qtot -0.219673
 1632         h1     56    bbb     H5   1632 0.05064400   1.008000   ; qtot -0.169029
 1633         h1     56    bbb     H6   1633 0.05064400   1.008000   ; qtot -0.118385
 1634         c3     56    bbb     C4   1634 -0.01612100  12.010000   ; qtot -0.134506
 1635         hc     56    bbb     H7   1635 0.04936100   1.008000   ; qtot -0.085145
 1636         hc     56    bbb     H8   1636 0.04936100   1.008000   ; qtot -0.035784
 1637         c3     56    bbb     C5   1637 0.11363000  12.010000   ; qtot 0.077846
 1638         hc     56    bbb     H9   1638 0.06265900   1.008000   ; qtot 0.140505
 1639         hc     56    bbb    H10   1639 0.06265900   1.008000   ; qtot 0.203164
 1640         c3     56    bbb     C6   1640 0.11363000  12.010000   ; qtot 0.316794
 1641         hc     56    bbb    H11   1641 0.06265900   1.008000   ; qtot 0.379453
 1642         hc     56    bbb    H12   1642 0.06265900   1.008000   ; qtot 0.442112
 1643         c3     56    bbb     C7   1643 0.05858200  12.010000   ; qtot 0.500694
 1644         h1     56    bbb    H13   1644 0.06123400   1.008000   ; qtot 0.561928
 1645         h1     56    bbb    H14   1645 0.06123400   1.008000   ; qtot 0.623162
 1646         c3     56    bbb     C8   1646 -0.72423400  12.010000   ; qtot -0.101072
 1647         h1     56    bbb    H15   1647 0.25637600   1.008000   ; qtot 0.155304
 1648         h1     56    bbb    H16   1648 0.25637600   1.008000   ; qtot 0.411680
 1649         c3     56    bbb     C9   1649 -0.72423400  12.010000   ; qtot -0.312554
 1650         h1     56    bbb    H17   1650 0.25637600   1.008000   ; qtot -0.056178
 1651         h1     56    bbb    H18   1651 0.25637600   1.008000   ; qtot 0.200198
 1652         os     56    bbb     O1   1652 -0.20025300  16.000000   ; qtot -0.000055
; residue   57 bbb rtp bbb q -0.0
 1653         n3     57    bbb     N1   1653 -0.59685800  14.010000   ; qtot -0.596913
 1654         c3     57    bbb     C1   1654 0.10137000  12.010000   ; qtot -0.495543
 1655         h1     57    bbb     H1   1655 0.04411300   1.008000   ; qtot -0.451430
 1656         h1     57    bbb     H2   1656 0.04411300   1.008000   ; qtot -0.407317
 1657         c3     57    bbb     C2   1657 0.10137000  12.010000   ; qtot -0.305947
 1658         h1     57    bbb     H3   1658 0.04411300   1.008000   ; qtot -0.261834
 1659         h1     57    bbb     H4   1659 0.04411300   1.008000   ; qtot -0.217721
 1660         c3     57    bbb     C3   1660 -0.00195300  12.010000   ; qtot -0.219674
 1661         h1     57    bbb     H5   1661 0.05064400   1.008000   ; qtot -0.169030
 1662         h1     57    bbb     H6   1662 0.05064400   1.008000   ; qtot -0.118386
 1663         c3     57    bbb     C4   1663 -0.01612100  12.010000   ; qtot -0.134507
 1664         hc     57    bbb     H7   1664 0.04936100   1.008000   ; qtot -0.085146
 1665         hc     57    bbb     H8   1665 0.04936100   1.008000   ; qtot -0.035785
 1666         c3     57    bbb     C5   1666 0.11363000  12.010000   ; qtot 0.077845
 1667         hc     57    bbb     H9   1667 0.06265900   1.008000   ; qtot 0.140504
 1668         hc     57    bbb    H10   1668 0.06265900   1.008000   ; qtot 0.203163
 1669         c3     57    bbb     C6   1669 0.11363000  12.010000   ; qtot 0.316793
 1670         hc     57    bbb    H11   1670 0.06265900   1.008000   ; qtot 0.379452
 1671         hc     57    bbb    H12   1671 0.06265900   1.008000   ; qtot 0.442111
 1672         c3     57    bbb     C7   1672 0.05858200  12.010000   ; qtot 0.500693
 1673         h1     57    bbb    H13   1673 0.06123400   1.008000   ; qtot 0.561927
 1674         h1     57    bbb    H14   1674 0.06123400   1.008000   ; qtot 0.623161
 1675         c3     57    bbb     C8   1675 -0.72423400  12.010000   ; qtot -0.101073
 1676         h1     57    bbb    H15   1676 0.25637600   1.008000   ; qtot 0.155303
 1677         h1     57    bbb    H16   1677 0.25637600   1.008000   ; qtot 0.411679
 1678         c3     57    bbb     C9   1678 -0.72423400  12.010000   ; qtot -0.312555
 1679         h1     57    bbb    H17   1679 0.25637600   1.008000   ; qtot -0.056179
 1680         h1     57    bbb    H18   1680 0.25637600   1.008000   ; qtot 0.200197
 1681         os     57    bbb     O1   1681 -0.20025300  16.000000   ; qtot -0.000056
; residue   58 bbb rtp bbb q -0.0
 1682         n3     58    bbb     N1   1682 -0.59685800  14.010000   ; qtot -0.596914
 1683         c3     58    bbb     C1   1683 0.10137000  12.010000   ; qtot -0.495544
 1684         h1     58    bbb     H1   1684 0.04411300   1.008000   ; qtot -0.451431
 1685         h1     58    bbb     H2   1685 0.04411300   1.008000   ; qtot -0.407318
 1686         c3     58    bbb     C2   1686 0.10137000  12.010000   ; qtot -0.305948
 1687         h1     58    bbb     H3   1687 0.04411300   1.008000   ; qtot -0.261835
 1688         h1     58    bbb     H4   1688 0.04411300   1.008000   ; qtot -0.217722
 1689         c3     58    bbb     C3   1689 -0.00195300  12.010000   ; qtot -0.219675
 1690         h1     58    bbb     H5   1690 0.05064400   1.008000   ; qtot -0.169031
 1691         h1     58    bbb     H6   1691 0.05064400   1.008000   ; qtot -0.118387
 1692         c3     58    bbb     C4   1692 -0.01612100  12.010000   ; qtot -0.134508
 1693         hc     58    bbb     H7   1693 0.04936100   1.008000   ; qtot -0.085147
 1694         hc     58    bbb     H8   1694 0.04936100   1.008000   ; qtot -0.035786
 1695         c3     58    bbb     C5   1695 0.11363000  12.010000   ; qtot 0.077844
 1696         hc     58    bbb     H9   1696 0.06265900   1.008000   ; qtot 0.140503
 1697         hc     58    bbb    H10   1697 0.06265900   1.008000   ; qtot 0.203162
 1698         c3     58    bbb     C6   1698 0.11363000  12.010000   ; qtot 0.316792
 1699         hc     58    bbb    H11   1699 0.06265900   1.008000   ; qtot 0.379451
 1700         hc     58    bbb    H12   1700 0.06265900   1.008000   ; qtot 0.442110
 1701         c3     58    bbb     C7   1701 0.05858200  12.010000   ; qtot 0.500692
 1702         h1     58    bbb    H13   1702 0.06123400   1.008000   ; qtot 0.561926
 1703         h1     58    bbb    H14   1703 0.06123400   1.008000   ; qtot 0.623160
 1704         c3     58    bbb     C8   1704 -0.72423400  12.010000   ; qtot -0.101074
 1705         h1     58    bbb    H15   1705 0.25637600   1.008000   ; qtot 0.155302
 1706         h1     58    bbb    H16   1706 0.25637600   1.008000   ; qtot 0.411678
 1707         c3     58    bbb     C9   1707 -0.72423400  12.010000   ; qtot -0.312556
 1708         h1     58    bbb    H17   1708 0.25637600   1.008000   ; qtot -0.056180
 1709         h1     58    bbb    H18   1709 0.25637600   1.008000   ; qtot 0.200196
 1710         os     58    bbb     O1   1710 -0.20025300  16.000000   ; qtot -0.000057
; residue   59 bbb rtp bbb q -0.0
 1711         n3     59    bbb     N1   1711 -0.59685800  14.010000   ; qtot -0.596915
 1712         c3     59    bbb     C1   1712 0.10137000  12.010000   ; qtot -0.495545
 1713         h1     59    bbb     H1   1713 0.04411300   1.008000   ; qtot -0.451432
 1714         h1     59    bbb     H2   1714 0.04411300   1.008000   ; qtot -0.407319
 1715         c3     59    bbb     C2   1715 0.10137000  12.010000   ; qtot -0.305949
 1716         h1     59    bbb     H3   1716 0.04411300   1.008000   ; qtot -0.261836
 1717         h1     59    bbb     H4   1717 0.04411300   1.008000   ; qtot -0.217723
 1718         c3     59    bbb     C3   1718 -0.00195300  12.010000   ; qtot -0.219676
 1719         h1     59    bbb     H5   1719 0.05064400   1.008000   ; qtot -0.169032
 1720         h1     59    bbb     H6   1720 0.05064400   1.008000   ; qtot -0.118388
 1721         c3     59    bbb     C4   1721 -0.01612100  12.010000   ; qtot -0.134509
 1722         hc     59    bbb     H7   1722 0.04936100   1.008000   ; qtot -0.085148
 1723         hc     59    bbb     H8   1723 0.04936100   1.008000   ; qtot -0.035787
 1724         c3     59    bbb     C5   1724 0.11363000  12.010000   ; qtot 0.077843
 1725         hc     59    bbb     H9   1725 0.06265900   1.008000   ; qtot 0.140502
 1726         hc     59    bbb    H10   1726 0.06265900   1.008000   ; qtot 0.203161
 1727         c3     59    bbb     C6   1727 0.11363000  12.010000   ; qtot 0.316791
 1728         hc     59    bbb    H11   1728 0.06265900   1.008000   ; qtot 0.379450
 1729         hc     59    bbb    H12   1729 0.06265900   1.008000   ; qtot 0.442109
 1730         c3     59    bbb     C7   1730 0.05858200  12.010000   ; qtot 0.500691
 1731         h1     59    bbb    H13   1731 0.06123400   1.008000   ; qtot 0.561925
 1732         h1     59    bbb    H14   1732 0.06123400   1.008000   ; qtot 0.623159
 1733         c3     59    bbb     C8   1733 -0.72423400  12.010000   ; qtot -0.101075
 1734         h1     59    bbb    H15   1734 0.25637600   1.008000   ; qtot 0.155301
 1735         h1     59    bbb    H16   1735 0.25637600   1.008000   ; qtot 0.411677
 1736         c3     59    bbb     C9   1736 -0.72423400  12.010000   ; qtot -0.312557
 1737         h1     59    bbb    H17   1737 0.25637600   1.008000   ; qtot -0.056181
 1738         h1     59    bbb    H18   1738 0.25637600   1.008000   ; qtot 0.200195
 1739         os     59    bbb     O1   1739 -0.20025300  16.000000   ; qtot -0.000058
; residue   60 bbb rtp bbb q -0.0
 1740         n3     60    bbb     N1   1740 -0.59685800  14.010000   ; qtot -0.596916
 1741         c3     60    bbb     C1   1741 0.10137000  12.010000   ; qtot -0.495546
 1742         h1     60    bbb     H1   1742 0.04411300   1.008000   ; qtot -0.451433
 1743         h1     60    bbb     H2   1743 0.04411300   1.008000   ; qtot -0.407320
 1744         c3     60    bbb     C2   1744 0.10137000  12.010000   ; qtot -0.305950
 1745         h1     60    bbb     H3   1745 0.04411300   1.008000   ; qtot -0.261837
 1746         h1     60    bbb     H4   1746 0.04411300   1.008000   ; qtot -0.217724
 1747         c3     60    bbb     C3   1747 -0.00195300  12.010000   ; qtot -0.219677
 1748         h1     60    bbb     H5   1748 0.05064400   1.008000   ; qtot -0.169033
 1749         h1     60    bbb     H6   1749 0.05064400   1.008000   ; qtot -0.118389
 1750         c3     60    bbb     C4   1750 -0.01612100  12.010000   ; qtot -0.134510
 1751         hc     60    bbb     H7   1751 0.04936100   1.008000   ; qtot -0.085149
 1752         hc     60    bbb     H8   1752 0.04936100   1.008000   ; qtot -0.035788
 1753         c3     60    bbb     C5   1753 0.11363000  12.010000   ; qtot 0.077842
 1754         hc     60    bbb     H9   1754 0.06265900   1.008000   ; qtot 0.140501
 1755         hc     60    bbb    H10   1755 0.06265900   1.008000   ; qtot 0.203160
 1756         c3     60    bbb     C6   1756 0.11363000  12.010000   ; qtot 0.316790
 1757         hc     60    bbb    H11   1757 0.06265900   1.008000   ; qtot 0.379449
 1758         hc     60    bbb    H12   1758 0.06265900   1.008000   ; qtot 0.442108
 1759         c3     60    bbb     C7   1759 0.05858200  12.010000   ; qtot 0.500690
 1760         h1     60    bbb    H13   1760 0.06123400   1.008000   ; qtot 0.561924
 1761         h1     60    bbb    H14   1761 0.06123400   1.008000   ; qtot 0.623158
 1762         c3     60    bbb     C8   1762 -0.72423400  12.010000   ; qtot -0.101076
 1763         h1     60    bbb    H15   1763 0.25637600   1.008000   ; qtot 0.155300
 1764         h1     60    bbb    H16   1764 0.25637600   1.008000   ; qtot 0.411676
 1765         c3     60    bbb     C9   1765 -0.72423400  12.010000   ; qtot -0.312558
 1766         h1     60    bbb    H17   1766 0.25637600   1.008000   ; qtot -0.056182
 1767         h1     60    bbb    H18   1767 0.25637600   1.008000   ; qtot 0.200194
 1768         os     60    bbb     O1   1768 -0.20025300  16.000000   ; qtot -0.000059
; residue   61 bbb rtp bbb q -0.0
 1769         n3     61    bbb     N1   1769 -0.59685800  14.010000   ; qtot -0.596917
 1770         c3     61    bbb     C1   1770 0.10137000  12.010000   ; qtot -0.495547
 1771         h1     61    bbb     H1   1771 0.04411300   1.008000   ; qtot -0.451434
 1772         h1     61    bbb     H2   1772 0.04411300   1.008000   ; qtot -0.407321
 1773         c3     61    bbb     C2   1773 0.10137000  12.010000   ; qtot -0.305951
 1774         h1     61    bbb     H3   1774 0.04411300   1.008000   ; qtot -0.261838
 1775         h1     61    bbb     H4   1775 0.04411300   1.008000   ; qtot -0.217725
 1776         c3     61    bbb     C3   1776 -0.00195300  12.010000   ; qtot -0.219678
 1777         h1     61    bbb     H5   1777 0.05064400   1.008000   ; qtot -0.169034
 1778         h1     61    bbb     H6   1778 0.05064400   1.008000   ; qtot -0.118390
 1779         c3     61    bbb     C4   1779 -0.01612100  12.010000   ; qtot -0.134511
 1780         hc     61    bbb     H7   1780 0.04936100   1.008000   ; qtot -0.085150
 1781         hc     61    bbb     H8   1781 0.04936100   1.008000   ; qtot -0.035789
 1782         c3     61    bbb     C5   1782 0.11363000  12.010000   ; qtot 0.077841
 1783         hc     61    bbb     H9   1783 0.06265900   1.008000   ; qtot 0.140500
 1784         hc     61    bbb    H10   1784 0.06265900   1.008000   ; qtot 0.203159
 1785         c3     61    bbb     C6   1785 0.11363000  12.010000   ; qtot 0.316789
 1786         hc     61    bbb    H11   1786 0.06265900   1.008000   ; qtot 0.379448
 1787         hc     61    bbb    H12   1787 0.06265900   1.008000   ; qtot 0.442107
 1788         c3     61    bbb     C7   1788 0.05858200  12.010000   ; qtot 0.500689
 1789         h1     61    bbb    H13   1789 0.06123400   1.008000   ; qtot 0.561923
 1790         h1     61    bbb    H14   1790 0.06123400   1.008000   ; qtot 0.623157
 1791         c3     61    bbb     C8   1791 -0.72423400  12.010000   ; qtot -0.101077
 1792         h1     61    bbb    H15   1792 0.25637600   1.008000   ; qtot 0.155299
 1793         h1     61    bbb    H16   1793 0.25637600   1.008000   ; qtot 0.411675
 1794         c3     61    bbb     C9   1794 -0.72423400  12.010000   ; qtot -0.312559
 1795         h1     61    bbb    H17   1795 0.25637600   1.008000   ; qtot -0.056183
 1796         h1     61    bbb    H18   1796 0.25637600   1.008000   ; qtot 0.200193
 1797         os     61    bbb     O1   1797 -0.20025300  16.000000   ; qtot -0.000060
; residue   62 bbb rtp bbb q -0.0
 1798         n3     62    bbb     N1   1798 -0.59685800  14.010000   ; qtot -0.596918
 1799         c3     62    bbb     C1   1799 0.10137000  12.010000   ; qtot -0.495548
 1800         h1     62    bbb     H1   1800 0.04411300   1.008000   ; qtot -0.451435
 1801         h1     62    bbb     H2   1801 0.04411300   1.008000   ; qtot -0.407322
 1802         c3     62    bbb     C2   1802 0.10137000  12.010000   ; qtot -0.305952
 1803         h1     62    bbb     H3   1803 0.04411300   1.008000   ; qtot -0.261839
 1804         h1     62    bbb     H4   1804 0.04411300   1.008000   ; qtot -0.217726
 1805         c3     62    bbb     C3   1805 -0.00195300  12.010000   ; qtot -0.219679
 1806         h1     62    bbb     H5   1806 0.05064400   1.008000   ; qtot -0.169035
 1807         h1     62    bbb     H6   1807 0.05064400   1.008000   ; qtot -0.118391
 1808         c3     62    bbb     C4   1808 -0.01612100  12.010000   ; qtot -0.134512
 1809         hc     62    bbb     H7   1809 0.04936100   1.008000   ; qtot -0.085151
 1810         hc     62    bbb     H8   1810 0.04936100   1.008000   ; qtot -0.035790
 1811         c3     62    bbb     C5   1811 0.11363000  12.010000   ; qtot 0.077840
 1812         hc     62    bbb     H9   1812 0.06265900   1.008000   ; qtot 0.140499
 1813         hc     62    bbb    H10   1813 0.06265900   1.008000   ; qtot 0.203158
 1814         c3     62    bbb     C6   1814 0.11363000  12.010000   ; qtot 0.316788
 1815         hc     62    bbb    H11   1815 0.06265900   1.008000   ; qtot 0.379447
 1816         hc     62    bbb    H12   1816 0.06265900   1.008000   ; qtot 0.442106
 1817         c3     62    bbb     C7   1817 0.05858200  12.010000   ; qtot 0.500688
 1818         h1     62    bbb    H13   1818 0.06123400   1.008000   ; qtot 0.561922
 1819         h1     62    bbb    H14   1819 0.06123400   1.008000   ; qtot 0.623156
 1820         c3     62    bbb     C8   1820 -0.72423400  12.010000   ; qtot -0.101078
 1821         h1     62    bbb    H15   1821 0.25637600   1.008000   ; qtot 0.155298
 1822         h1     62    bbb    H16   1822 0.25637600   1.008000   ; qtot 0.411674
 1823         c3     62    bbb     C9   1823 -0.72423400  12.010000   ; qtot -0.312560
 1824         h1     62    bbb    H17   1824 0.25637600   1.008000   ; qtot -0.056184
 1825         h1     62    bbb    H18   1825 0.25637600   1.008000   ; qtot 0.200192
 1826         os     62    bbb     O1   1826 -0.20025300  16.000000   ; qtot -0.000061
; residue   63 bbb rtp bbb q -0.0
 1827         n3     63    bbb     N1   1827 -0.59685800  14.010000   ; qtot -0.596919
 1828         c3     63    bbb     C1   1828 0.10137000  12.010000   ; qtot -0.495549
 1829         h1     63    bbb     H1   1829 0.04411300   1.008000   ; qtot -0.451436
 1830         h1     63    bbb     H2   1830 0.04411300   1.008000   ; qtot -0.407323
 1831         c3     63    bbb     C2   1831 0.10137000  12.010000   ; qtot -0.305953
 1832         h1     63    bbb     H3   1832 0.04411300   1.008000   ; qtot -0.261840
 1833         h1     63    bbb     H4   1833 0.04411300   1.008000   ; qtot -0.217727
 1834         c3     63    bbb     C3   1834 -0.00195300  12.010000   ; qtot -0.219680
 1835         h1     63    bbb     H5   1835 0.05064400   1.008000   ; qtot -0.169036
 1836         h1     63    bbb     H6   1836 0.05064400   1.008000   ; qtot -0.118392
 1837         c3     63    bbb     C4   1837 -0.01612100  12.010000   ; qtot -0.134513
 1838         hc     63    bbb     H7   1838 0.04936100   1.008000   ; qtot -0.085152
 1839         hc     63    bbb     H8   1839 0.04936100   1.008000   ; qtot -0.035791
 1840         c3     63    bbb     C5   1840 0.11363000  12.010000   ; qtot 0.077839
 1841         hc     63    bbb     H9   1841 0.06265900   1.008000   ; qtot 0.140498
 1842         hc     63    bbb    H10   1842 0.06265900   1.008000   ; qtot 0.203157
 1843         c3     63    bbb     C6   1843 0.11363000  12.010000   ; qtot 0.316787
 1844         hc     63    bbb    H11   1844 0.06265900   1.008000   ; qtot 0.379446
 1845         hc     63    bbb    H12   1845 0.06265900   1.008000   ; qtot 0.442105
 1846         c3     63    bbb     C7   1846 0.05858200  12.010000   ; qtot 0.500687
 1847         h1     63    bbb    H13   1847 0.06123400   1.008000   ; qtot 0.561921
 1848         h1     63    bbb    H14   1848 0.06123400   1.008000   ; qtot 0.623155
 1849         c3     63    bbb     C8   1849 -0.72423400  12.010000   ; qtot -0.101079
 1850         h1     63    bbb    H15   1850 0.25637600   1.008000   ; qtot 0.155297
 1851         h1     63    bbb    H16   1851 0.25637600   1.008000   ; qtot 0.411673
 1852         c3     63    bbb     C9   1852 -0.72423400  12.010000   ; qtot -0.312561
 1853         h1     63    bbb    H17   1853 0.25637600   1.008000   ; qtot -0.056185
 1854         h1     63    bbb    H18   1854 0.25637600   1.008000   ; qtot 0.200191
 1855         os     63    bbb     O1   1855 -0.20025300  16.000000   ; qtot -0.000062
; residue   64 bbb rtp bbb q -0.0
 1856         n3     64    bbb     N1   1856 -0.59685800  14.010000   ; qtot -0.596920
 1857         c3     64    bbb     C1   1857 0.10137000  12.010000   ; qtot -0.495550
 1858         h1     64    bbb     H1   1858 0.04411300   1.008000   ; qtot -0.451437
 1859         h1     64    bbb     H2   1859 0.04411300   1.008000   ; qtot -0.407324
 1860         c3     64    bbb     C2   1860 0.10137000  12.010000   ; qtot -0.305954
 1861         h1     64    bbb     H3   1861 0.04411300   1.008000   ; qtot -0.261841
 1862         h1     64    bbb     H4   1862 0.04411300   1.008000   ; qtot -0.217728
 1863         c3     64    bbb     C3   1863 -0.00195300  12.010000   ; qtot -0.219681
 1864         h1     64    bbb     H5   1864 0.05064400   1.008000   ; qtot -0.169037
 1865         h1     64    bbb     H6   1865 0.05064400   1.008000   ; qtot -0.118393
 1866         c3     64    bbb     C4   1866 -0.01612100  12.010000   ; qtot -0.134514
 1867         hc     64    bbb     H7   1867 0.04936100   1.008000   ; qtot -0.085153
 1868         hc     64    bbb     H8   1868 0.04936100   1.008000   ; qtot -0.035792
 1869         c3     64    bbb     C5   1869 0.11363000  12.010000   ; qtot 0.077838
 1870         hc     64    bbb     H9   1870 0.06265900   1.008000   ; qtot 0.140497
 1871         hc     64    bbb    H10   1871 0.06265900   1.008000   ; qtot 0.203156
 1872         c3     64    bbb     C6   1872 0.11363000  12.010000   ; qtot 0.316786
 1873         hc     64    bbb    H11   1873 0.06265900   1.008000   ; qtot 0.379445
 1874         hc     64    bbb    H12   1874 0.06265900   1.008000   ; qtot 0.442104
 1875         c3     64    bbb     C7   1875 0.05858200  12.010000   ; qtot 0.500686
 1876         h1     64    bbb    H13   1876 0.06123400   1.008000   ; qtot 0.561920
 1877         h1     64    bbb    H14   1877 0.06123400   1.008000   ; qtot 0.623154
 1878         c3     64    bbb     C8   1878 -0.72423400  12.010000   ; qtot -0.101080
 1879         h1     64    bbb    H15   1879 0.25637600   1.008000   ; qtot 0.155296
 1880         h1     64    bbb    H16   1880 0.25637600   1.008000   ; qtot 0.411672
 1881         c3     64    bbb     C9   1881 -0.72423400  12.010000   ; qtot -0.312562
 1882         h1     64    bbb    H17   1882 0.25637600   1.008000   ; qtot -0.056186
 1883         h1     64    bbb    H18   1883 0.25637600   1.008000   ; qtot 0.200190
 1884         os     64    bbb     O1   1884 -0.20025300  16.000000   ; qtot -0.000063
; residue   65 bbb rtp bbb q -0.0
 1885         n3     65    bbb     N1   1885 -0.59685800  14.010000   ; qtot -0.596921
 1886         c3     65    bbb     C1   1886 0.10137000  12.010000   ; qtot -0.495551
 1887         h1     65    bbb     H1   1887 0.04411300   1.008000   ; qtot -0.451438
 1888         h1     65    bbb     H2   1888 0.04411300   1.008000   ; qtot -0.407325
 1889         c3     65    bbb     C2   1889 0.10137000  12.010000   ; qtot -0.305955
 1890         h1     65    bbb     H3   1890 0.04411300   1.008000   ; qtot -0.261842
 1891         h1     65    bbb     H4   1891 0.04411300   1.008000   ; qtot -0.217729
 1892         c3     65    bbb     C3   1892 -0.00195300  12.010000   ; qtot -0.219682
 1893         h1     65    bbb     H5   1893 0.05064400   1.008000   ; qtot -0.169038
 1894         h1     65    bbb     H6   1894 0.05064400   1.008000   ; qtot -0.118394
 1895         c3     65    bbb     C4   1895 -0.01612100  12.010000   ; qtot -0.134515
 1896         hc     65    bbb     H7   1896 0.04936100   1.008000   ; qtot -0.085154
 1897         hc     65    bbb     H8   1897 0.04936100   1.008000   ; qtot -0.035793
 1898         c3     65    bbb     C5   1898 0.11363000  12.010000   ; qtot 0.077837
 1899         hc     65    bbb     H9   1899 0.06265900   1.008000   ; qtot 0.140496
 1900         hc     65    bbb    H10   1900 0.06265900   1.008000   ; qtot 0.203155
 1901         c3     65    bbb     C6   1901 0.11363000  12.010000   ; qtot 0.316785
 1902         hc     65    bbb    H11   1902 0.06265900   1.008000   ; qtot 0.379444
 1903         hc     65    bbb    H12   1903 0.06265900   1.008000   ; qtot 0.442103
 1904         c3     65    bbb     C7   1904 0.05858200  12.010000   ; qtot 0.500685
 1905         h1     65    bbb    H13   1905 0.06123400   1.008000   ; qtot 0.561919
 1906         h1     65    bbb    H14   1906 0.06123400   1.008000   ; qtot 0.623153
 1907         c3     65    bbb     C8   1907 -0.72423400  12.010000   ; qtot -0.101081
 1908         h1     65    bbb    H15   1908 0.25637600   1.008000   ; qtot 0.155295
 1909         h1     65    bbb    H16   1909 0.25637600   1.008000   ; qtot 0.411671
 1910         c3     65    bbb     C9   1910 -0.72423400  12.010000   ; qtot -0.312563
 1911         h1     65    bbb    H17   1911 0.25637600   1.008000   ; qtot -0.056187
 1912         h1     65    bbb    H18   1912 0.25637600   1.008000   ; qtot 0.200189
 1913         os     65    bbb     O1   1913 -0.20025300  16.000000   ; qtot -0.000064
; residue   66 bbb rtp bbb q -0.0
 1914         n3     66    bbb     N1   1914 -0.59685800  14.010000   ; qtot -0.596922
 1915         c3     66    bbb     C1   1915 0.10137000  12.010000   ; qtot -0.495552
 1916         h1     66    bbb     H1   1916 0.04411300   1.008000   ; qtot -0.451439
 1917         h1     66    bbb     H2   1917 0.04411300   1.008000   ; qtot -0.407326
 1918         c3     66    bbb     C2   1918 0.10137000  12.010000   ; qtot -0.305956
 1919         h1     66    bbb     H3   1919 0.04411300   1.008000   ; qtot -0.261843
 1920         h1     66    bbb     H4   1920 0.04411300   1.008000   ; qtot -0.217730
 1921         c3     66    bbb     C3   1921 -0.00195300  12.010000   ; qtot -0.219683
 1922         h1     66    bbb     H5   1922 0.05064400   1.008000   ; qtot -0.169039
 1923         h1     66    bbb     H6   1923 0.05064400   1.008000   ; qtot -0.118395
 1924         c3     66    bbb     C4   1924 -0.01612100  12.010000   ; qtot -0.134516
 1925         hc     66    bbb     H7   1925 0.04936100   1.008000   ; qtot -0.085155
 1926         hc     66    bbb     H8   1926 0.04936100   1.008000   ; qtot -0.035794
 1927         c3     66    bbb     C5   1927 0.11363000  12.010000   ; qtot 0.077836
 1928         hc     66    bbb     H9   1928 0.06265900   1.008000   ; qtot 0.140495
 1929         hc     66    bbb    H10   1929 0.06265900   1.008000   ; qtot 0.203154
 1930         c3     66    bbb     C6   1930 0.11363000  12.010000   ; qtot 0.316784
 1931         hc     66    bbb    H11   1931 0.06265900   1.008000   ; qtot 0.379443
 1932         hc     66    bbb    H12   1932 0.06265900   1.008000   ; qtot 0.442102
 1933         c3     66    bbb     C7   1933 0.05858200  12.010000   ; qtot 0.500684
 1934         h1     66    bbb    H13   1934 0.06123400   1.008000   ; qtot 0.561918
 1935         h1     66    bbb    H14   1935 0.06123400   1.008000   ; qtot 0.623152
 1936         c3     66    bbb     C8   1936 -0.72423400  12.010000   ; qtot -0.101082
 1937         h1     66    bbb    H15   1937 0.25637600   1.008000   ; qtot 0.155294
 1938         h1     66    bbb    H16   1938 0.25637600   1.008000   ; qtot 0.411670
 1939         c3     66    bbb     C9   1939 -0.72423400  12.010000   ; qtot -0.312564
 1940         h1     66    bbb    H17   1940 0.25637600   1.008000   ; qtot -0.056188
 1941         h1     66    bbb    H18   1941 0.25637600   1.008000   ; qtot 0.200188
 1942         os     66    bbb     O1   1942 -0.20025300  16.000000   ; qtot -0.000065
; residue   67 bbb rtp bbb q -0.0
 1943         n3     67    bbb     N1   1943 -0.59685800  14.010000   ; qtot -0.596923
 1944         c3     67    bbb     C1   1944 0.10137000  12.010000   ; qtot -0.495553
 1945         h1     67    bbb     H1   1945 0.04411300   1.008000   ; qtot -0.451440
 1946         h1     67    bbb     H2   1946 0.04411300   1.008000   ; qtot -0.407327
 1947         c3     67    bbb     C2   1947 0.10137000  12.010000   ; qtot -0.305957
 1948         h1     67    bbb     H3   1948 0.04411300   1.008000   ; qtot -0.261844
 1949         h1     67    bbb     H4   1949 0.04411300   1.008000   ; qtot -0.217731
 1950         c3     67    bbb     C3   1950 -0.00195300  12.010000   ; qtot -0.219684
 1951         h1     67    bbb     H5   1951 0.05064400   1.008000   ; qtot -0.169040
 1952         h1     67    bbb     H6   1952 0.05064400   1.008000   ; qtot -0.118396
 1953         c3     67    bbb     C4   1953 -0.01612100  12.010000   ; qtot -0.134517
 1954         hc     67    bbb     H7   1954 0.04936100   1.008000   ; qtot -0.085156
 1955         hc     67    bbb     H8   1955 0.04936100   1.008000   ; qtot -0.035795
 1956         c3     67    bbb     C5   1956 0.11363000  12.010000   ; qtot 0.077835
 1957         hc     67    bbb     H9   1957 0.06265900   1.008000   ; qtot 0.140494
 1958         hc     67    bbb    H10   1958 0.06265900   1.008000   ; qtot 0.203153
 1959         c3     67    bbb     C6   1959 0.11363000  12.010000   ; qtot 0.316783
 1960         hc     67    bbb    H11   1960 0.06265900   1.008000   ; qtot 0.379442
 1961         hc     67    bbb    H12   1961 0.06265900   1.008000   ; qtot 0.442101
 1962         c3     67    bbb     C7   1962 0.05858200  12.010000   ; qtot 0.500683
 1963         h1     67    bbb    H13   1963 0.06123400   1.008000   ; qtot 0.561917
 1964         h1     67    bbb    H14   1964 0.06123400   1.008000   ; qtot 0.623151
 1965         c3     67    bbb     C8   1965 -0.72423400  12.010000   ; qtot -0.101083
 1966         h1     67    bbb    H15   1966 0.25637600   1.008000   ; qtot 0.155293
 1967         h1     67    bbb    H16   1967 0.25637600   1.008000   ; qtot 0.411669
 1968         c3     67    bbb     C9   1968 -0.72423400  12.010000   ; qtot -0.312565
 1969         h1     67    bbb    H17   1969 0.25637600   1.008000   ; qtot -0.056189
 1970         h1     67    bbb    H18   1970 0.25637600   1.008000   ; qtot 0.200187
 1971         os     67    bbb     O1   1971 -0.20025300  16.000000   ; qtot -0.000066
; residue   68 bbb rtp bbb q -0.0
 1972         n3     68    bbb     N1   1972 -0.59685800  14.010000   ; qtot -0.596924
 1973         c3     68    bbb     C1   1973 0.10137000  12.010000   ; qtot -0.495554
 1974         h1     68    bbb     H1   1974 0.04411300   1.008000   ; qtot -0.451441
 1975         h1     68    bbb     H2   1975 0.04411300   1.008000   ; qtot -0.407328
 1976         c3     68    bbb     C2   1976 0.10137000  12.010000   ; qtot -0.305958
 1977         h1     68    bbb     H3   1977 0.04411300   1.008000   ; qtot -0.261845
 1978         h1     68    bbb     H4   1978 0.04411300   1.008000   ; qtot -0.217732
 1979         c3     68    bbb     C3   1979 -0.00195300  12.010000   ; qtot -0.219685
 1980         h1     68    bbb     H5   1980 0.05064400   1.008000   ; qtot -0.169041
 1981         h1     68    bbb     H6   1981 0.05064400   1.008000   ; qtot -0.118397
 1982         c3     68    bbb     C4   1982 -0.01612100  12.010000   ; qtot -0.134518
 1983         hc     68    bbb     H7   1983 0.04936100   1.008000   ; qtot -0.085157
 1984         hc     68    bbb     H8   1984 0.04936100   1.008000   ; qtot -0.035796
 1985         c3     68    bbb     C5   1985 0.11363000  12.010000   ; qtot 0.077834
 1986         hc     68    bbb     H9   1986 0.06265900   1.008000   ; qtot 0.140493
 1987         hc     68    bbb    H10   1987 0.06265900   1.008000   ; qtot 0.203152
 1988         c3     68    bbb     C6   1988 0.11363000  12.010000   ; qtot 0.316782
 1989         hc     68    bbb    H11   1989 0.06265900   1.008000   ; qtot 0.379441
 1990         hc     68    bbb    H12   1990 0.06265900   1.008000   ; qtot 0.442100
 1991         c3     68    bbb     C7   1991 0.05858200  12.010000   ; qtot 0.500682
 1992         h1     68    bbb    H13   1992 0.06123400   1.008000   ; qtot 0.561916
 1993         h1     68    bbb    H14   1993 0.06123400   1.008000   ; qtot 0.623150
 1994         c3     68    bbb     C8   1994 -0.72423400  12.010000   ; qtot -0.101084
 1995         h1     68    bbb    H15   1995 0.25637600   1.008000   ; qtot 0.155292
 1996         h1     68    bbb    H16   1996 0.25637600   1.008000   ; qtot 0.411668
 1997         c3     68    bbb     C9   1997 -0.72423400  12.010000   ; qtot -0.312566
 1998         h1     68    bbb    H17   1998 0.25637600   1.008000   ; qtot -0.056190
 1999         h1     68    bbb    H18   1999 0.25637600   1.008000   ; qtot 0.200186
 2000         os     68    bbb     O1   2000 -0.20025300  16.000000   ; qtot -0.000067
; residue   69 bbb rtp bbb q -0.0
 2001         n3     69    bbb     N1   2001 -0.59685800  14.010000   ; qtot -0.596925
 2002         c3     69    bbb     C1   2002 0.10137000  12.010000   ; qtot -0.495555
 2003         h1     69    bbb     H1   2003 0.04411300   1.008000   ; qtot -0.451442
 2004         h1     69    bbb     H2   2004 0.04411300   1.008000   ; qtot -0.407329
 2005         c3     69    bbb     C2   2005 0.10137000  12.010000   ; qtot -0.305959
 2006         h1     69    bbb     H3   2006 0.04411300   1.008000   ; qtot -0.261846
 2007         h1     69    bbb     H4   2007 0.04411300   1.008000   ; qtot -0.217733
 2008         c3     69    bbb     C3   2008 -0.00195300  12.010000   ; qtot -0.219686
 2009         h1     69    bbb     H5   2009 0.05064400   1.008000   ; qtot -0.169042
 2010         h1     69    bbb     H6   2010 0.05064400   1.008000   ; qtot -0.118398
 2011         c3     69    bbb     C4   2011 -0.01612100  12.010000   ; qtot -0.134519
 2012         hc     69    bbb     H7   2012 0.04936100   1.008000   ; qtot -0.085158
 2013         hc     69    bbb     H8   2013 0.04936100   1.008000   ; qtot -0.035797
 2014         c3     69    bbb     C5   2014 0.11363000  12.010000   ; qtot 0.077833
 2015         hc     69    bbb     H9   2015 0.06265900   1.008000   ; qtot 0.140492
 2016         hc     69    bbb    H10   2016 0.06265900   1.008000   ; qtot 0.203151
 2017         c3     69    bbb     C6   2017 0.11363000  12.010000   ; qtot 0.316781
 2018         hc     69    bbb    H11   2018 0.06265900   1.008000   ; qtot 0.379440
 2019         hc     69    bbb    H12   2019 0.06265900   1.008000   ; qtot 0.442099
 2020         c3     69    bbb     C7   2020 0.05858200  12.010000   ; qtot 0.500681
 2021         h1     69    bbb    H13   2021 0.06123400   1.008000   ; qtot 0.561915
 2022         h1     69    bbb    H14   2022 0.06123400   1.008000   ; qtot 0.623149
 2023         c3     69    bbb     C8   2023 -0.72423400  12.010000   ; qtot -0.101085
 2024         h1     69    bbb    H15   2024 0.25637600   1.008000   ; qtot 0.155291
 2025         h1     69    bbb    H16   2025 0.25637600   1.008000   ; qtot 0.411667
 2026         c3     69    bbb     C9   2026 -0.72423400  12.010000   ; qtot -0.312567
 2027         h1     69    bbb    H17   2027 0.25637600   1.008000   ; qtot -0.056191
 2028         h1     69    bbb    H18   2028 0.25637600   1.008000   ; qtot 0.200185
 2029         os     69    bbb     O1   2029 -0.20025300  16.000000   ; qtot -0.000068
; residue   70 bbb rtp bbb q -0.0
 2030         n3     70    bbb     N1   2030 -0.59685800  14.010000   ; qtot -0.596926
 2031         c3     70    bbb     C1   2031 0.10137000  12.010000   ; qtot -0.495556
 2032         h1     70    bbb     H1   2032 0.04411300   1.008000   ; qtot -0.451443
 2033         h1     70    bbb     H2   2033 0.04411300   1.008000   ; qtot -0.407330
 2034         c3     70    bbb     C2   2034 0.10137000  12.010000   ; qtot -0.305960
 2035         h1     70    bbb     H3   2035 0.04411300   1.008000   ; qtot -0.261847
 2036         h1     70    bbb     H4   2036 0.04411300   1.008000   ; qtot -0.217734
 2037         c3     70    bbb     C3   2037 -0.00195300  12.010000   ; qtot -0.219687
 2038         h1     70    bbb     H5   2038 0.05064400   1.008000   ; qtot -0.169043
 2039         h1     70    bbb     H6   2039 0.05064400   1.008000   ; qtot -0.118399
 2040         c3     70    bbb     C4   2040 -0.01612100  12.010000   ; qtot -0.134520
 2041         hc     70    bbb     H7   2041 0.04936100   1.008000   ; qtot -0.085159
 2042         hc     70    bbb     H8   2042 0.04936100   1.008000   ; qtot -0.035798
 2043         c3     70    bbb     C5   2043 0.11363000  12.010000   ; qtot 0.077832
 2044         hc     70    bbb     H9   2044 0.06265900   1.008000   ; qtot 0.140491
 2045         hc     70    bbb    H10   2045 0.06265900   1.008000   ; qtot 0.203150
 2046         c3     70    bbb     C6   2046 0.11363000  12.010000   ; qtot 0.316780
 2047         hc     70    bbb    H11   2047 0.06265900   1.008000   ; qtot 0.379439
 2048         hc     70    bbb    H12   2048 0.06265900   1.008000   ; qtot 0.442098
 2049         c3     70    bbb     C7   2049 0.05858200  12.010000   ; qtot 0.500680
 2050         h1     70    bbb    H13   2050 0.06123400   1.008000   ; qtot 0.561914
 2051         h1     70    bbb    H14   2051 0.06123400   1.008000   ; qtot 0.623148
 2052         c3     70    bbb     C8   2052 -0.72423400  12.010000   ; qtot -0.101086
 2053         h1     70    bbb    H15   2053 0.25637600   1.008000   ; qtot 0.155290
 2054         h1     70    bbb    H16   2054 0.25637600   1.008000   ; qtot 0.411666
 2055         c3     70    bbb     C9   2055 -0.72423400  12.010000   ; qtot -0.312568
 2056         h1     70    bbb    H17   2056 0.25637600   1.008000   ; qtot -0.056192
 2057         h1     70    bbb    H18   2057 0.25637600   1.008000   ; qtot 0.200184
 2058         os     70    bbb     O1   2058 -0.20025300  16.000000   ; qtot -0.000069
; residue   71 bbb rtp bbb q -0.0
 2059         n3     71    bbb     N1   2059 -0.59685800  14.010000   ; qtot -0.596927
 2060         c3     71    bbb     C1   2060 0.10137000  12.010000   ; qtot -0.495557
 2061         h1     71    bbb     H1   2061 0.04411300   1.008000   ; qtot -0.451444
 2062         h1     71    bbb     H2   2062 0.04411300   1.008000   ; qtot -0.407331
 2063         c3     71    bbb     C2   2063 0.10137000  12.010000   ; qtot -0.305961
 2064         h1     71    bbb     H3   2064 0.04411300   1.008000   ; qtot -0.261848
 2065         h1     71    bbb     H4   2065 0.04411300   1.008000   ; qtot -0.217735
 2066         c3     71    bbb     C3   2066 -0.00195300  12.010000   ; qtot -0.219688
 2067         h1     71    bbb     H5   2067 0.05064400   1.008000   ; qtot -0.169044
 2068         h1     71    bbb     H6   2068 0.05064400   1.008000   ; qtot -0.118400
 2069         c3     71    bbb     C4   2069 -0.01612100  12.010000   ; qtot -0.134521
 2070         hc     71    bbb     H7   2070 0.04936100   1.008000   ; qtot -0.085160
 2071         hc     71    bbb     H8   2071 0.04936100   1.008000   ; qtot -0.035799
 2072         c3     71    bbb     C5   2072 0.11363000  12.010000   ; qtot 0.077831
 2073         hc     71    bbb     H9   2073 0.06265900   1.008000   ; qtot 0.140490
 2074         hc     71    bbb    H10   2074 0.06265900   1.008000   ; qtot 0.203149
 2075         c3     71    bbb     C6   2075 0.11363000  12.010000   ; qtot 0.316779
 2076         hc     71    bbb    H11   2076 0.06265900   1.008000   ; qtot 0.379438
 2077         hc     71    bbb    H12   2077 0.06265900   1.008000   ; qtot 0.442097
 2078         c3     71    bbb     C7   2078 0.05858200  12.010000   ; qtot 0.500679
 2079         h1     71    bbb    H13   2079 0.06123400   1.008000   ; qtot 0.561913
 2080         h1     71    bbb    H14   2080 0.06123400   1.008000   ; qtot 0.623147
 2081         c3     71    bbb     C8   2081 -0.72423400  12.010000   ; qtot -0.101087
 2082         h1     71    bbb    H15   2082 0.25637600   1.008000   ; qtot 0.155289
 2083         h1     71    bbb    H16   2083 0.25637600   1.008000   ; qtot 0.411665
 2084         c3     71    bbb     C9   2084 -0.72423400  12.010000   ; qtot -0.312569
 2085         h1     71    bbb    H17   2085 0.25637600   1.008000   ; qtot -0.056193
 2086         h1     71    bbb    H18   2086 0.25637600   1.008000   ; qtot 0.200183
 2087         os     71    bbb     O1   2087 -0.20025300  16.000000   ; qtot -0.000070
; residue   72 bbb rtp bbb q -0.0
 2088         n3     72    bbb     N1   2088 -0.59685800  14.010000   ; qtot -0.596928
 2089         c3     72    bbb     C1   2089 0.10137000  12.010000   ; qtot -0.495558
 2090         h1     72    bbb     H1   2090 0.04411300   1.008000   ; qtot -0.451445
 2091         h1     72    bbb     H2   2091 0.04411300   1.008000   ; qtot -0.407332
 2092         c3     72    bbb     C2   2092 0.10137000  12.010000   ; qtot -0.305962
 2093         h1     72    bbb     H3   2093 0.04411300   1.008000   ; qtot -0.261849
 2094         h1     72    bbb     H4   2094 0.04411300   1.008000   ; qtot -0.217736
 2095         c3     72    bbb     C3   2095 -0.00195300  12.010000   ; qtot -0.219689
 2096         h1     72    bbb     H5   2096 0.05064400   1.008000   ; qtot -0.169045
 2097         h1     72    bbb     H6   2097 0.05064400   1.008000   ; qtot -0.118401
 2098         c3     72    bbb     C4   2098 -0.01612100  12.010000   ; qtot -0.134522
 2099         hc     72    bbb     H7   2099 0.04936100   1.008000   ; qtot -0.085161
 2100         hc     72    bbb     H8   2100 0.04936100   1.008000   ; qtot -0.035800
 2101         c3     72    bbb     C5   2101 0.11363000  12.010000   ; qtot 0.077830
 2102         hc     72    bbb     H9   2102 0.06265900   1.008000   ; qtot 0.140489
 2103         hc     72    bbb    H10   2103 0.06265900   1.008000   ; qtot 0.203148
 2104         c3     72    bbb     C6   2104 0.11363000  12.010000   ; qtot 0.316778
 2105         hc     72    bbb    H11   2105 0.06265900   1.008000   ; qtot 0.379437
 2106         hc     72    bbb    H12   2106 0.06265900   1.008000   ; qtot 0.442096
 2107         c3     72    bbb     C7   2107 0.05858200  12.010000   ; qtot 0.500678
 2108         h1     72    bbb    H13   2108 0.06123400   1.008000   ; qtot 0.561912
 2109         h1     72    bbb    H14   2109 0.06123400   1.008000   ; qtot 0.623146
 2110         c3     72    bbb     C8   2110 -0.72423400  12.010000   ; qtot -0.101088
 2111         h1     72    bbb    H15   2111 0.25637600   1.008000   ; qtot 0.155288
 2112         h1     72    bbb    H16   2112 0.25637600   1.008000   ; qtot 0.411664
 2113         c3     72    bbb     C9   2113 -0.72423400  12.010000   ; qtot -0.312570
 2114         h1     72    bbb    H17   2114 0.25637600   1.008000   ; qtot -0.056194
 2115         h1     72    bbb    H18   2115 0.25637600   1.008000   ; qtot 0.200182
 2116         os     72    bbb     O1   2116 -0.20025300  16.000000   ; qtot -0.000071
; residue   73 bbb rtp bbb q -0.0
 2117         n3     73    bbb     N1   2117 -0.59685800  14.010000   ; qtot -0.596929
 2118         c3     73    bbb     C1   2118 0.10137000  12.010000   ; qtot -0.495559
 2119         h1     73    bbb     H1   2119 0.04411300   1.008000   ; qtot -0.451446
 2120         h1     73    bbb     H2   2120 0.04411300   1.008000   ; qtot -0.407333
 2121         c3     73    bbb     C2   2121 0.10137000  12.010000   ; qtot -0.305963
 2122         h1     73    bbb     H3   2122 0.04411300   1.008000   ; qtot -0.261850
 2123         h1     73    bbb     H4   2123 0.04411300   1.008000   ; qtot -0.217737
 2124         c3     73    bbb     C3   2124 -0.00195300  12.010000   ; qtot -0.219690
 2125         h1     73    bbb     H5   2125 0.05064400   1.008000   ; qtot -0.169046
 2126         h1     73    bbb     H6   2126 0.05064400   1.008000   ; qtot -0.118402
 2127         c3     73    bbb     C4   2127 -0.01612100  12.010000   ; qtot -0.134523
 2128         hc     73    bbb     H7   2128 0.04936100   1.008000   ; qtot -0.085162
 2129         hc     73    bbb     H8   2129 0.04936100   1.008000   ; qtot -0.035801
 2130         c3     73    bbb     C5   2130 0.11363000  12.010000   ; qtot 0.077829
 2131         hc     73    bbb     H9   2131 0.06265900   1.008000   ; qtot 0.140488
 2132         hc     73    bbb    H10   2132 0.06265900   1.008000   ; qtot 0.203147
 2133         c3     73    bbb     C6   2133 0.11363000  12.010000   ; qtot 0.316777
 2134         hc     73    bbb    H11   2134 0.06265900   1.008000   ; qtot 0.379436
 2135         hc     73    bbb    H12   2135 0.06265900   1.008000   ; qtot 0.442095
 2136         c3     73    bbb     C7   2136 0.05858200  12.010000   ; qtot 0.500677
 2137         h1     73    bbb    H13   2137 0.06123400   1.008000   ; qtot 0.561911
 2138         h1     73    bbb    H14   2138 0.06123400   1.008000   ; qtot 0.623145
 2139         c3     73    bbb     C8   2139 -0.72423400  12.010000   ; qtot -0.101089
 2140         h1     73    bbb    H15   2140 0.25637600   1.008000   ; qtot 0.155287
 2141         h1     73    bbb    H16   2141 0.25637600   1.008000   ; qtot 0.411663
 2142         c3     73    bbb     C9   2142 -0.72423400  12.010000   ; qtot -0.312571
 2143         h1     73    bbb    H17   2143 0.25637600   1.008000   ; qtot -0.056195
 2144         h1     73    bbb    H18   2144 0.25637600   1.008000   ; qtot 0.200181
 2145         os     73    bbb     O1   2145 -0.20025300  16.000000   ; qtot -0.000072
; residue   74 bbb rtp bbb q -0.0
 2146         n3     74    bbb     N1   2146 -0.59685800  14.010000   ; qtot -0.596930
 2147         c3     74    bbb     C1   2147 0.10137000  12.010000   ; qtot -0.495560
 2148         h1     74    bbb     H1   2148 0.04411300   1.008000   ; qtot -0.451447
 2149         h1     74    bbb     H2   2149 0.04411300   1.008000   ; qtot -0.407334
 2150         c3     74    bbb     C2   2150 0.10137000  12.010000   ; qtot -0.305964
 2151         h1     74    bbb     H3   2151 0.04411300   1.008000   ; qtot -0.261851
 2152         h1     74    bbb     H4   2152 0.04411300   1.008000   ; qtot -0.217738
 2153         c3     74    bbb     C3   2153 -0.00195300  12.010000   ; qtot -0.219691
 2154         h1     74    bbb     H5   2154 0.05064400   1.008000   ; qtot -0.169047
 2155         h1     74    bbb     H6   2155 0.05064400   1.008000   ; qtot -0.118403
 2156         c3     74    bbb     C4   2156 -0.01612100  12.010000   ; qtot -0.134524
 2157         hc     74    bbb     H7   2157 0.04936100   1.008000   ; qtot -0.085163
 2158         hc     74    bbb     H8   2158 0.04936100   1.008000   ; qtot -0.035802
 2159         c3     74    bbb     C5   2159 0.11363000  12.010000   ; qtot 0.077828
 2160         hc     74    bbb     H9   2160 0.06265900   1.008000   ; qtot 0.140487
 2161         hc     74    bbb    H10   2161 0.06265900   1.008000   ; qtot 0.203146
 2162         c3     74    bbb     C6   2162 0.11363000  12.010000   ; qtot 0.316776
 2163         hc     74    bbb    H11   2163 0.06265900   1.008000   ; qtot 0.379435
 2164         hc     74    bbb    H12   2164 0.06265900   1.008000   ; qtot 0.442094
 2165         c3     74    bbb     C7   2165 0.05858200  12.010000   ; qtot 0.500676
 2166         h1     74    bbb    H13   2166 0.06123400   1.008000   ; qtot 0.561910
 2167         h1     74    bbb    H14   2167 0.06123400   1.008000   ; qtot 0.623144
 2168         c3     74    bbb     C8   2168 -0.72423400  12.010000   ; qtot -0.101090
 2169         h1     74    bbb    H15   2169 0.25637600   1.008000   ; qtot 0.155286
 2170         h1     74    bbb    H16   2170 0.25637600   1.008000   ; qtot 0.411662
 2171         c3     74    bbb     C9   2171 -0.72423400  12.010000   ; qtot -0.312572
 2172         h1     74    bbb    H17   2172 0.25637600   1.008000   ; qtot -0.056196
 2173         h1     74    bbb    H18   2173 0.25637600   1.008000   ; qtot 0.200180
 2174         os     74    bbb     O1   2174 -0.20025300  16.000000   ; qtot -0.000073
; residue   75 bbb rtp bbb q -0.0
 2175         n3     75    bbb     N1   2175 -0.59685800  14.010000   ; qtot -0.596931
 2176         c3     75    bbb     C1   2176 0.10137000  12.010000   ; qtot -0.495561
 2177         h1     75    bbb     H1   2177 0.04411300   1.008000   ; qtot -0.451448
 2178         h1     75    bbb     H2   2178 0.04411300   1.008000   ; qtot -0.407335
 2179         c3     75    bbb     C2   2179 0.10137000  12.010000   ; qtot -0.305965
 2180         h1     75    bbb     H3   2180 0.04411300   1.008000   ; qtot -0.261852
 2181         h1     75    bbb     H4   2181 0.04411300   1.008000   ; qtot -0.217739
 2182         c3     75    bbb     C3   2182 -0.00195300  12.010000   ; qtot -0.219692
 2183         h1     75    bbb     H5   2183 0.05064400   1.008000   ; qtot -0.169048
 2184         h1     75    bbb     H6   2184 0.05064400   1.008000   ; qtot -0.118404
 2185         c3     75    bbb     C4   2185 -0.01612100  12.010000   ; qtot -0.134525
 2186         hc     75    bbb     H7   2186 0.04936100   1.008000   ; qtot -0.085164
 2187         hc     75    bbb     H8   2187 0.04936100   1.008000   ; qtot -0.035803
 2188         c3     75    bbb     C5   2188 0.11363000  12.010000   ; qtot 0.077827
 2189         hc     75    bbb     H9   2189 0.06265900   1.008000   ; qtot 0.140486
 2190         hc     75    bbb    H10   2190 0.06265900   1.008000   ; qtot 0.203145
 2191         c3     75    bbb     C6   2191 0.11363000  12.010000   ; qtot 0.316775
 2192         hc     75    bbb    H11   2192 0.06265900   1.008000   ; qtot 0.379434
 2193         hc     75    bbb    H12   2193 0.06265900   1.008000   ; qtot 0.442093
 2194         c3     75    bbb     C7   2194 0.05858200  12.010000   ; qtot 0.500675
 2195         h1     75    bbb    H13   2195 0.06123400   1.008000   ; qtot 0.561909
 2196         h1     75    bbb    H14   2196 0.06123400   1.008000   ; qtot 0.623143
 2197         c3     75    bbb     C8   2197 -0.72423400  12.010000   ; qtot -0.101091
 2198         h1     75    bbb    H15   2198 0.25637600   1.008000   ; qtot 0.155285
 2199         h1     75    bbb    H16   2199 0.25637600   1.008000   ; qtot 0.411661
 2200         c3     75    bbb     C9   2200 -0.72423400  12.010000   ; qtot -0.312573
 2201         h1     75    bbb    H17   2201 0.25637600   1.008000   ; qtot -0.056197
 2202         h1     75    bbb    H18   2202 0.25637600   1.008000   ; qtot 0.200179
 2203         os     75    bbb     O1   2203 -0.20025300  16.000000   ; qtot -0.000074
; residue   76 bbb rtp bbb q -0.0
 2204         n3     76    bbb     N1   2204 -0.59685800  14.010000   ; qtot -0.596932
 2205         c3     76    bbb     C1   2205 0.10137000  12.010000   ; qtot -0.495562
 2206         h1     76    bbb     H1   2206 0.04411300   1.008000   ; qtot -0.451449
 2207         h1     76    bbb     H2   2207 0.04411300   1.008000   ; qtot -0.407336
 2208         c3     76    bbb     C2   2208 0.10137000  12.010000   ; qtot -0.305966
 2209         h1     76    bbb     H3   2209 0.04411300   1.008000   ; qtot -0.261853
 2210         h1     76    bbb     H4   2210 0.04411300   1.008000   ; qtot -0.217740
 2211         c3     76    bbb     C3   2211 -0.00195300  12.010000   ; qtot -0.219693
 2212         h1     76    bbb     H5   2212 0.05064400   1.008000   ; qtot -0.169049
 2213         h1     76    bbb     H6   2213 0.05064400   1.008000   ; qtot -0.118405
 2214         c3     76    bbb     C4   2214 -0.01612100  12.010000   ; qtot -0.134526
 2215         hc     76    bbb     H7   2215 0.04936100   1.008000   ; qtot -0.085165
 2216         hc     76    bbb     H8   2216 0.04936100   1.008000   ; qtot -0.035804
 2217         c3     76    bbb     C5   2217 0.11363000  12.010000   ; qtot 0.077826
 2218         hc     76    bbb     H9   2218 0.06265900   1.008000   ; qtot 0.140485
 2219         hc     76    bbb    H10   2219 0.06265900   1.008000   ; qtot 0.203144
 2220         c3     76    bbb     C6   2220 0.11363000  12.010000   ; qtot 0.316774
 2221         hc     76    bbb    H11   2221 0.06265900   1.008000   ; qtot 0.379433
 2222         hc     76    bbb    H12   2222 0.06265900   1.008000   ; qtot 0.442092
 2223         c3     76    bbb     C7   2223 0.05858200  12.010000   ; qtot 0.500674
 2224         h1     76    bbb    H13   2224 0.06123400   1.008000   ; qtot 0.561908
 2225         h1     76    bbb    H14   2225 0.06123400   1.008000   ; qtot 0.623142
 2226         c3     76    bbb     C8   2226 -0.72423400  12.010000   ; qtot -0.101092
 2227         h1     76    bbb    H15   2227 0.25637600   1.008000   ; qtot 0.155284
 2228         h1     76    bbb    H16   2228 0.25637600   1.008000   ; qtot 0.411660
 2229         c3     76    bbb     C9   2229 -0.72423400  12.010000   ; qtot -0.312574
 2230         h1     76    bbb    H17   2230 0.25637600   1.008000   ; qtot -0.056198
 2231         h1     76    bbb    H18   2231 0.25637600   1.008000   ; qtot 0.200178
 2232         os     76    bbb     O1   2232 -0.20025300  16.000000   ; qtot -0.000075
; residue   77 bbb rtp bbb q -0.0
 2233         n3     77    bbb     N1   2233 -0.59685800  14.010000   ; qtot -0.596933
 2234         c3     77    bbb     C1   2234 0.10137000  12.010000   ; qtot -0.495563
 2235         h1     77    bbb     H1   2235 0.04411300   1.008000   ; qtot -0.451450
 2236         h1     77    bbb     H2   2236 0.04411300   1.008000   ; qtot -0.407337
 2237         c3     77    bbb     C2   2237 0.10137000  12.010000   ; qtot -0.305967
 2238         h1     77    bbb     H3   2238 0.04411300   1.008000   ; qtot -0.261854
 2239         h1     77    bbb     H4   2239 0.04411300   1.008000   ; qtot -0.217741
 2240         c3     77    bbb     C3   2240 -0.00195300  12.010000   ; qtot -0.219694
 2241         h1     77    bbb     H5   2241 0.05064400   1.008000   ; qtot -0.169050
 2242         h1     77    bbb     H6   2242 0.05064400   1.008000   ; qtot -0.118406
 2243         c3     77    bbb     C4   2243 -0.01612100  12.010000   ; qtot -0.134527
 2244         hc     77    bbb     H7   2244 0.04936100   1.008000   ; qtot -0.085166
 2245         hc     77    bbb     H8   2245 0.04936100   1.008000   ; qtot -0.035805
 2246         c3     77    bbb     C5   2246 0.11363000  12.010000   ; qtot 0.077825
 2247         hc     77    bbb     H9   2247 0.06265900   1.008000   ; qtot 0.140484
 2248         hc     77    bbb    H10   2248 0.06265900   1.008000   ; qtot 0.203143
 2249         c3     77    bbb     C6   2249 0.11363000  12.010000   ; qtot 0.316773
 2250         hc     77    bbb    H11   2250 0.06265900   1.008000   ; qtot 0.379432
 2251         hc     77    bbb    H12   2251 0.06265900   1.008000   ; qtot 0.442091
 2252         c3     77    bbb     C7   2252 0.05858200  12.010000   ; qtot 0.500673
 2253         h1     77    bbb    H13   2253 0.06123400   1.008000   ; qtot 0.561907
 2254         h1     77    bbb    H14   2254 0.06123400   1.008000   ; qtot 0.623141
 2255         c3     77    bbb     C8   2255 -0.72423400  12.010000   ; qtot -0.101093
 2256         h1     77    bbb    H15   2256 0.25637600   1.008000   ; qtot 0.155283
 2257         h1     77    bbb    H16   2257 0.25637600   1.008000   ; qtot 0.411659
 2258         c3     77    bbb     C9   2258 -0.72423400  12.010000   ; qtot -0.312575
 2259         h1     77    bbb    H17   2259 0.25637600   1.008000   ; qtot -0.056199
 2260         h1     77    bbb    H18   2260 0.25637600   1.008000   ; qtot 0.200177
 2261         os     77    bbb     O1   2261 -0.20025300  16.000000   ; qtot -0.000076
; residue   78 bbb rtp bbb q -0.0
 2262         n3     78    bbb     N1   2262 -0.59685800  14.010000   ; qtot -0.596934
 2263         c3     78    bbb     C1   2263 0.10137000  12.010000   ; qtot -0.495564
 2264         h1     78    bbb     H1   2264 0.04411300   1.008000   ; qtot -0.451451
 2265         h1     78    bbb     H2   2265 0.04411300   1.008000   ; qtot -0.407338
 2266         c3     78    bbb     C2   2266 0.10137000  12.010000   ; qtot -0.305968
 2267         h1     78    bbb     H3   2267 0.04411300   1.008000   ; qtot -0.261855
 2268         h1     78    bbb     H4   2268 0.04411300   1.008000   ; qtot -0.217742
 2269         c3     78    bbb     C3   2269 -0.00195300  12.010000   ; qtot -0.219695
 2270         h1     78    bbb     H5   2270 0.05064400   1.008000   ; qtot -0.169051
 2271         h1     78    bbb     H6   2271 0.05064400   1.008000   ; qtot -0.118407
 2272         c3     78    bbb     C4   2272 -0.01612100  12.010000   ; qtot -0.134528
 2273         hc     78    bbb     H7   2273 0.04936100   1.008000   ; qtot -0.085167
 2274         hc     78    bbb     H8   2274 0.04936100   1.008000   ; qtot -0.035806
 2275         c3     78    bbb     C5   2275 0.11363000  12.010000   ; qtot 0.077824
 2276         hc     78    bbb     H9   2276 0.06265900   1.008000   ; qtot 0.140483
 2277         hc     78    bbb    H10   2277 0.06265900   1.008000   ; qtot 0.203142
 2278         c3     78    bbb     C6   2278 0.11363000  12.010000   ; qtot 0.316772
 2279         hc     78    bbb    H11   2279 0.06265900   1.008000   ; qtot 0.379431
 2280         hc     78    bbb    H12   2280 0.06265900   1.008000   ; qtot 0.442090
 2281         c3     78    bbb     C7   2281 0.05858200  12.010000   ; qtot 0.500672
 2282         h1     78    bbb    H13   2282 0.06123400   1.008000   ; qtot 0.561906
 2283         h1     78    bbb    H14   2283 0.06123400   1.008000   ; qtot 0.623140
 2284         c3     78    bbb     C8   2284 -0.72423400  12.010000   ; qtot -0.101094
 2285         h1     78    bbb    H15   2285 0.25637600   1.008000   ; qtot 0.155282
 2286         h1     78    bbb    H16   2286 0.25637600   1.008000   ; qtot 0.411658
 2287         c3     78    bbb     C9   2287 -0.72423400  12.010000   ; qtot -0.312576
 2288         h1     78    bbb    H17   2288 0.25637600   1.008000   ; qtot -0.056200
 2289         h1     78    bbb    H18   2289 0.25637600   1.008000   ; qtot 0.200176
 2290         os     78    bbb     O1   2290 -0.20025300  16.000000   ; qtot -0.000077
; residue   79 bbb rtp bbb q -0.0
 2291         n3     79    bbb     N1   2291 -0.59685800  14.010000   ; qtot -0.596935
 2292         c3     79    bbb     C1   2292 0.10137000  12.010000   ; qtot -0.495565
 2293         h1     79    bbb     H1   2293 0.04411300   1.008000   ; qtot -0.451452
 2294         h1     79    bbb     H2   2294 0.04411300   1.008000   ; qtot -0.407339
 2295         c3     79    bbb     C2   2295 0.10137000  12.010000   ; qtot -0.305969
 2296         h1     79    bbb     H3   2296 0.04411300   1.008000   ; qtot -0.261856
 2297         h1     79    bbb     H4   2297 0.04411300   1.008000   ; qtot -0.217743
 2298         c3     79    bbb     C3   2298 -0.00195300  12.010000   ; qtot -0.219696
 2299         h1     79    bbb     H5   2299 0.05064400   1.008000   ; qtot -0.169052
 2300         h1     79    bbb     H6   2300 0.05064400   1.008000   ; qtot -0.118408
 2301         c3     79    bbb     C4   2301 -0.01612100  12.010000   ; qtot -0.134529
 2302         hc     79    bbb     H7   2302 0.04936100   1.008000   ; qtot -0.085168
 2303         hc     79    bbb     H8   2303 0.04936100   1.008000   ; qtot -0.035807
 2304         c3     79    bbb     C5   2304 0.11363000  12.010000   ; qtot 0.077823
 2305         hc     79    bbb     H9   2305 0.06265900   1.008000   ; qtot 0.140482
 2306         hc     79    bbb    H10   2306 0.06265900   1.008000   ; qtot 0.203141
 2307         c3     79    bbb     C6   2307 0.11363000  12.010000   ; qtot 0.316771
 2308         hc     79    bbb    H11   2308 0.06265900   1.008000   ; qtot 0.379430
 2309         hc     79    bbb    H12   2309 0.06265900   1.008000   ; qtot 0.442089
 2310         c3     79    bbb     C7   2310 0.05858200  12.010000   ; qtot 0.500671
 2311         h1     79    bbb    H13   2311 0.06123400   1.008000   ; qtot 0.561905
 2312         h1     79    bbb    H14   2312 0.06123400   1.008000   ; qtot 0.623139
 2313         c3     79    bbb     C8   2313 -0.72423400  12.010000   ; qtot -0.101095
 2314         h1     79    bbb    H15   2314 0.25637600   1.008000   ; qtot 0.155281
 2315         h1     79    bbb    H16   2315 0.25637600   1.008000   ; qtot 0.411657
 2316         c3     79    bbb     C9   2316 -0.72423400  12.010000   ; qtot -0.312577
 2317         h1     79    bbb    H17   2317 0.25637600   1.008000   ; qtot -0.056201
 2318         h1     79    bbb    H18   2318 0.25637600   1.008000   ; qtot 0.200175
 2319         os     79    bbb     O1   2319 -0.20025300  16.000000   ; qtot -0.000078
; residue   80 bbb rtp bbb q -0.0
 2320         n3     80    bbb     N1   2320 -0.59685800  14.010000   ; qtot -0.596936
 2321         c3     80    bbb     C1   2321 0.10137000  12.010000   ; qtot -0.495566
 2322         h1     80    bbb     H1   2322 0.04411300   1.008000   ; qtot -0.451453
 2323         h1     80    bbb     H2   2323 0.04411300   1.008000   ; qtot -0.407340
 2324         c3     80    bbb     C2   2324 0.10137000  12.010000   ; qtot -0.305970
 2325         h1     80    bbb     H3   2325 0.04411300   1.008000   ; qtot -0.261857
 2326         h1     80    bbb     H4   2326 0.04411300   1.008000   ; qtot -0.217744
 2327         c3     80    bbb     C3   2327 -0.00195300  12.010000   ; qtot -0.219697
 2328         h1     80    bbb     H5   2328 0.05064400   1.008000   ; qtot -0.169053
 2329         h1     80    bbb     H6   2329 0.05064400   1.008000   ; qtot -0.118409
 2330         c3     80    bbb     C4   2330 -0.01612100  12.010000   ; qtot -0.134530
 2331         hc     80    bbb     H7   2331 0.04936100   1.008000   ; qtot -0.085169
 2332         hc     80    bbb     H8   2332 0.04936100   1.008000   ; qtot -0.035808
 2333         c3     80    bbb     C5   2333 0.11363000  12.010000   ; qtot 0.077822
 2334         hc     80    bbb     H9   2334 0.06265900   1.008000   ; qtot 0.140481
 2335         hc     80    bbb    H10   2335 0.06265900   1.008000   ; qtot 0.203140
 2336         c3     80    bbb     C6   2336 0.11363000  12.010000   ; qtot 0.316770
 2337         hc     80    bbb    H11   2337 0.06265900   1.008000   ; qtot 0.379429
 2338         hc     80    bbb    H12   2338 0.06265900   1.008000   ; qtot 0.442088
 2339         c3     80    bbb     C7   2339 0.05858200  12.010000   ; qtot 0.500670
 2340         h1     80    bbb    H13   2340 0.06123400   1.008000   ; qtot 0.561904
 2341         h1     80    bbb    H14   2341 0.06123400   1.008000   ; qtot 0.623138
 2342         c3     80    bbb     C8   2342 -0.72423400  12.010000   ; qtot -0.101096
 2343         h1     80    bbb    H15   2343 0.25637600   1.008000   ; qtot 0.155280
 2344         h1     80    bbb    H16   2344 0.25637600   1.008000   ; qtot 0.411656
 2345         c3     80    bbb     C9   2345 -0.72423400  12.010000   ; qtot -0.312578
 2346         h1     80    bbb    H17   2346 0.25637600   1.008000   ; qtot -0.056202
 2347         h1     80    bbb    H18   2347 0.25637600   1.008000   ; qtot 0.200174
 2348         os     80    bbb     O1   2348 -0.20025300  16.000000   ; qtot -0.000079
; residue   81 bbb rtp bbb q -0.0
 2349         n3     81    bbb     N1   2349 -0.59685800  14.010000   ; qtot -0.596937
 2350         c3     81    bbb     C1   2350 0.10137000  12.010000   ; qtot -0.495567
 2351         h1     81    bbb     H1   2351 0.04411300   1.008000   ; qtot -0.451454
 2352         h1     81    bbb     H2   2352 0.04411300   1.008000   ; qtot -0.407341
 2353         c3     81    bbb     C2   2353 0.10137000  12.010000   ; qtot -0.305971
 2354         h1     81    bbb     H3   2354 0.04411300   1.008000   ; qtot -0.261858
 2355         h1     81    bbb     H4   2355 0.04411300   1.008000   ; qtot -0.217745
 2356         c3     81    bbb     C3   2356 -0.00195300  12.010000   ; qtot -0.219698
 2357         h1     81    bbb     H5   2357 0.05064400   1.008000   ; qtot -0.169054
 2358         h1     81    bbb     H6   2358 0.05064400   1.008000   ; qtot -0.118410
 2359         c3     81    bbb     C4   2359 -0.01612100  12.010000   ; qtot -0.134531
 2360         hc     81    bbb     H7   2360 0.04936100   1.008000   ; qtot -0.085170
 2361         hc     81    bbb     H8   2361 0.04936100   1.008000   ; qtot -0.035809
 2362         c3     81    bbb     C5   2362 0.11363000  12.010000   ; qtot 0.077821
 2363         hc     81    bbb     H9   2363 0.06265900   1.008000   ; qtot 0.140480
 2364         hc     81    bbb    H10   2364 0.06265900   1.008000   ; qtot 0.203139
 2365         c3     81    bbb     C6   2365 0.11363000  12.010000   ; qtot 0.316769
 2366         hc     81    bbb    H11   2366 0.06265900   1.008000   ; qtot 0.379428
 2367         hc     81    bbb    H12   2367 0.06265900   1.008000   ; qtot 0.442087
 2368         c3     81    bbb     C7   2368 0.05858200  12.010000   ; qtot 0.500669
 2369         h1     81    bbb    H13   2369 0.06123400   1.008000   ; qtot 0.561903
 2370         h1     81    bbb    H14   2370 0.06123400   1.008000   ; qtot 0.623137
 2371         c3     81    bbb     C8   2371 -0.72423400  12.010000   ; qtot -0.101097
 2372         h1     81    bbb    H15   2372 0.25637600   1.008000   ; qtot 0.155279
 2373         h1     81    bbb    H16   2373 0.25637600   1.008000   ; qtot 0.411655
 2374         c3     81    bbb     C9   2374 -0.72423400  12.010000   ; qtot -0.312579
 2375         h1     81    bbb    H17   2375 0.25637600   1.008000   ; qtot -0.056203
 2376         h1     81    bbb    H18   2376 0.25637600   1.008000   ; qtot 0.200173
 2377         os     81    bbb     O1   2377 -0.20025300  16.000000   ; qtot -0.000080
; residue   82 bbb rtp bbb q -0.0
 2378         n3     82    bbb     N1   2378 -0.59685800  14.010000   ; qtot -0.596938
 2379         c3     82    bbb     C1   2379 0.10137000  12.010000   ; qtot -0.495568
 2380         h1     82    bbb     H1   2380 0.04411300   1.008000   ; qtot -0.451455
 2381         h1     82    bbb     H2   2381 0.04411300   1.008000   ; qtot -0.407342
 2382         c3     82    bbb     C2   2382 0.10137000  12.010000   ; qtot -0.305972
 2383         h1     82    bbb     H3   2383 0.04411300   1.008000   ; qtot -0.261859
 2384         h1     82    bbb     H4   2384 0.04411300   1.008000   ; qtot -0.217746
 2385         c3     82    bbb     C3   2385 -0.00195300  12.010000   ; qtot -0.219699
 2386         h1     82    bbb     H5   2386 0.05064400   1.008000   ; qtot -0.169055
 2387         h1     82    bbb     H6   2387 0.05064400   1.008000   ; qtot -0.118411
 2388         c3     82    bbb     C4   2388 -0.01612100  12.010000   ; qtot -0.134532
 2389         hc     82    bbb     H7   2389 0.04936100   1.008000   ; qtot -0.085171
 2390         hc     82    bbb     H8   2390 0.04936100   1.008000   ; qtot -0.035810
 2391         c3     82    bbb     C5   2391 0.11363000  12.010000   ; qtot 0.077820
 2392         hc     82    bbb     H9   2392 0.06265900   1.008000   ; qtot 0.140479
 2393         hc     82    bbb    H10   2393 0.06265900   1.008000   ; qtot 0.203138
 2394         c3     82    bbb     C6   2394 0.11363000  12.010000   ; qtot 0.316768
 2395         hc     82    bbb    H11   2395 0.06265900   1.008000   ; qtot 0.379427
 2396         hc     82    bbb    H12   2396 0.06265900   1.008000   ; qtot 0.442086
 2397         c3     82    bbb     C7   2397 0.05858200  12.010000   ; qtot 0.500668
 2398         h1     82    bbb    H13   2398 0.06123400   1.008000   ; qtot 0.561902
 2399         h1     82    bbb    H14   2399 0.06123400   1.008000   ; qtot 0.623136
 2400         c3     82    bbb     C8   2400 -0.72423400  12.010000   ; qtot -0.101098
 2401         h1     82    bbb    H15   2401 0.25637600   1.008000   ; qtot 0.155278
 2402         h1     82    bbb    H16   2402 0.25637600   1.008000   ; qtot 0.411654
 2403         c3     82    bbb     C9   2403 -0.72423400  12.010000   ; qtot -0.312580
 2404         h1     82    bbb    H17   2404 0.25637600   1.008000   ; qtot -0.056204
 2405         h1     82    bbb    H18   2405 0.25637600   1.008000   ; qtot 0.200172
 2406         os     82    bbb     O1   2406 -0.20025300  16.000000   ; qtot -0.000081
; residue   83 bbb rtp bbb q -0.0
 2407         n3     83    bbb     N1   2407 -0.59685800  14.010000   ; qtot -0.596939
 2408         c3     83    bbb     C1   2408 0.10137000  12.010000   ; qtot -0.495569
 2409         h1     83    bbb     H1   2409 0.04411300   1.008000   ; qtot -0.451456
 2410         h1     83    bbb     H2   2410 0.04411300   1.008000   ; qtot -0.407343
 2411         c3     83    bbb     C2   2411 0.10137000  12.010000   ; qtot -0.305973
 2412         h1     83    bbb     H3   2412 0.04411300   1.008000   ; qtot -0.261860
 2413         h1     83    bbb     H4   2413 0.04411300   1.008000   ; qtot -0.217747
 2414         c3     83    bbb     C3   2414 -0.00195300  12.010000   ; qtot -0.219700
 2415         h1     83    bbb     H5   2415 0.05064400   1.008000   ; qtot -0.169056
 2416         h1     83    bbb     H6   2416 0.05064400   1.008000   ; qtot -0.118412
 2417         c3     83    bbb     C4   2417 -0.01612100  12.010000   ; qtot -0.134533
 2418         hc     83    bbb     H7   2418 0.04936100   1.008000   ; qtot -0.085172
 2419         hc     83    bbb     H8   2419 0.04936100   1.008000   ; qtot -0.035811
 2420         c3     83    bbb     C5   2420 0.11363000  12.010000   ; qtot 0.077819
 2421         hc     83    bbb     H9   2421 0.06265900   1.008000   ; qtot 0.140478
 2422         hc     83    bbb    H10   2422 0.06265900   1.008000   ; qtot 0.203137
 2423         c3     83    bbb     C6   2423 0.11363000  12.010000   ; qtot 0.316767
 2424         hc     83    bbb    H11   2424 0.06265900   1.008000   ; qtot 0.379426
 2425         hc     83    bbb    H12   2425 0.06265900   1.008000   ; qtot 0.442085
 2426         c3     83    bbb     C7   2426 0.05858200  12.010000   ; qtot 0.500667
 2427         h1     83    bbb    H13   2427 0.06123400   1.008000   ; qtot 0.561901
 2428         h1     83    bbb    H14   2428 0.06123400   1.008000   ; qtot 0.623135
 2429         c3     83    bbb     C8   2429 -0.72423400  12.010000   ; qtot -0.101099
 2430         h1     83    bbb    H15   2430 0.25637600   1.008000   ; qtot 0.155277
 2431         h1     83    bbb    H16   2431 0.25637600   1.008000   ; qtot 0.411653
 2432         c3     83    bbb     C9   2432 -0.72423400  12.010000   ; qtot -0.312581
 2433         h1     83    bbb    H17   2433 0.25637600   1.008000   ; qtot -0.056205
 2434         h1     83    bbb    H18   2434 0.25637600   1.008000   ; qtot 0.200171
 2435         os     83    bbb     O1   2435 -0.20025300  16.000000   ; qtot -0.000082
; residue   84 bbb rtp bbb q -0.0
 2436         n3     84    bbb     N1   2436 -0.59685800  14.010000   ; qtot -0.596940
 2437         c3     84    bbb     C1   2437 0.10137000  12.010000   ; qtot -0.495570
 2438         h1     84    bbb     H1   2438 0.04411300   1.008000   ; qtot -0.451457
 2439         h1     84    bbb     H2   2439 0.04411300   1.008000   ; qtot -0.407344
 2440         c3     84    bbb     C2   2440 0.10137000  12.010000   ; qtot -0.305974
 2441         h1     84    bbb     H3   2441 0.04411300   1.008000   ; qtot -0.261861
 2442         h1     84    bbb     H4   2442 0.04411300   1.008000   ; qtot -0.217748
 2443         c3     84    bbb     C3   2443 -0.00195300  12.010000   ; qtot -0.219701
 2444         h1     84    bbb     H5   2444 0.05064400   1.008000   ; qtot -0.169057
 2445         h1     84    bbb     H6   2445 0.05064400   1.008000   ; qtot -0.118413
 2446         c3     84    bbb     C4   2446 -0.01612100  12.010000   ; qtot -0.134534
 2447         hc     84    bbb     H7   2447 0.04936100   1.008000   ; qtot -0.085173
 2448         hc     84    bbb     H8   2448 0.04936100   1.008000   ; qtot -0.035812
 2449         c3     84    bbb     C5   2449 0.11363000  12.010000   ; qtot 0.077818
 2450         hc     84    bbb     H9   2450 0.06265900   1.008000   ; qtot 0.140477
 2451         hc     84    bbb    H10   2451 0.06265900   1.008000   ; qtot 0.203136
 2452         c3     84    bbb     C6   2452 0.11363000  12.010000   ; qtot 0.316766
 2453         hc     84    bbb    H11   2453 0.06265900   1.008000   ; qtot 0.379425
 2454         hc     84    bbb    H12   2454 0.06265900   1.008000   ; qtot 0.442084
 2455         c3     84    bbb     C7   2455 0.05858200  12.010000   ; qtot 0.500666
 2456         h1     84    bbb    H13   2456 0.06123400   1.008000   ; qtot 0.561900
 2457         h1     84    bbb    H14   2457 0.06123400   1.008000   ; qtot 0.623134
 2458         c3     84    bbb     C8   2458 -0.72423400  12.010000   ; qtot -0.101100
 2459         h1     84    bbb    H15   2459 0.25637600   1.008000   ; qtot 0.155276
 2460         h1     84    bbb    H16   2460 0.25637600   1.008000   ; qtot 0.411652
 2461         c3     84    bbb     C9   2461 -0.72423400  12.010000   ; qtot -0.312582
 2462         h1     84    bbb    H17   2462 0.25637600   1.008000   ; qtot -0.056206
 2463         h1     84    bbb    H18   2463 0.25637600   1.008000   ; qtot 0.200170
 2464         os     84    bbb     O1   2464 -0.20025300  16.000000   ; qtot -0.000083
; residue   85 bbb rtp bbb q -0.0
 2465         n3     85    bbb     N1   2465 -0.59685800  14.010000   ; qtot -0.596941
 2466         c3     85    bbb     C1   2466 0.10137000  12.010000   ; qtot -0.495571
 2467         h1     85    bbb     H1   2467 0.04411300   1.008000   ; qtot -0.451458
 2468         h1     85    bbb     H2   2468 0.04411300   1.008000   ; qtot -0.407345
 2469         c3     85    bbb     C2   2469 0.10137000  12.010000   ; qtot -0.305975
 2470         h1     85    bbb     H3   2470 0.04411300   1.008000   ; qtot -0.261862
 2471         h1     85    bbb     H4   2471 0.04411300   1.008000   ; qtot -0.217749
 2472         c3     85    bbb     C3   2472 -0.00195300  12.010000   ; qtot -0.219702
 2473         h1     85    bbb     H5   2473 0.05064400   1.008000   ; qtot -0.169058
 2474         h1     85    bbb     H6   2474 0.05064400   1.008000   ; qtot -0.118414
 2475         c3     85    bbb     C4   2475 -0.01612100  12.010000   ; qtot -0.134535
 2476         hc     85    bbb     H7   2476 0.04936100   1.008000   ; qtot -0.085174
 2477         hc     85    bbb     H8   2477 0.04936100   1.008000   ; qtot -0.035813
 2478         c3     85    bbb     C5   2478 0.11363000  12.010000   ; qtot 0.077817
 2479         hc     85    bbb     H9   2479 0.06265900   1.008000   ; qtot 0.140476
 2480         hc     85    bbb    H10   2480 0.06265900   1.008000   ; qtot 0.203135
 2481         c3     85    bbb     C6   2481 0.11363000  12.010000   ; qtot 0.316765
 2482         hc     85    bbb    H11   2482 0.06265900   1.008000   ; qtot 0.379424
 2483         hc     85    bbb    H12   2483 0.06265900   1.008000   ; qtot 0.442083
 2484         c3     85    bbb     C7   2484 0.05858200  12.010000   ; qtot 0.500665
 2485         h1     85    bbb    H13   2485 0.06123400   1.008000   ; qtot 0.561899
 2486         h1     85    bbb    H14   2486 0.06123400   1.008000   ; qtot 0.623133
 2487         c3     85    bbb     C8   2487 -0.72423400  12.010000   ; qtot -0.101101
 2488         h1     85    bbb    H15   2488 0.25637600   1.008000   ; qtot 0.155275
 2489         h1     85    bbb    H16   2489 0.25637600   1.008000   ; qtot 0.411651
 2490         c3     85    bbb     C9   2490 -0.72423400  12.010000   ; qtot -0.312583
 2491         h1     85    bbb    H17   2491 0.25637600   1.008000   ; qtot -0.056207
 2492         h1     85    bbb    H18   2492 0.25637600   1.008000   ; qtot 0.200169
 2493         os     85    bbb     O1   2493 -0.20025300  16.000000   ; qtot -0.000084
; residue   86 bbb rtp bbb q -0.0
 2494         n3     86    bbb     N1   2494 -0.59685800  14.010000   ; qtot -0.596942
 2495         c3     86    bbb     C1   2495 0.10137000  12.010000   ; qtot -0.495572
 2496         h1     86    bbb     H1   2496 0.04411300   1.008000   ; qtot -0.451459
 2497         h1     86    bbb     H2   2497 0.04411300   1.008000   ; qtot -0.407346
 2498         c3     86    bbb     C2   2498 0.10137000  12.010000   ; qtot -0.305976
 2499         h1     86    bbb     H3   2499 0.04411300   1.008000   ; qtot -0.261863
 2500         h1     86    bbb     H4   2500 0.04411300   1.008000   ; qtot -0.217750
 2501         c3     86    bbb     C3   2501 -0.00195300  12.010000   ; qtot -0.219703
 2502         h1     86    bbb     H5   2502 0.05064400   1.008000   ; qtot -0.169059
 2503         h1     86    bbb     H6   2503 0.05064400   1.008000   ; qtot -0.118415
 2504         c3     86    bbb     C4   2504 -0.01612100  12.010000   ; qtot -0.134536
 2505         hc     86    bbb     H7   2505 0.04936100   1.008000   ; qtot -0.085175
 2506         hc     86    bbb     H8   2506 0.04936100   1.008000   ; qtot -0.035814
 2507         c3     86    bbb     C5   2507 0.11363000  12.010000   ; qtot 0.077816
 2508         hc     86    bbb     H9   2508 0.06265900   1.008000   ; qtot 0.140475
 2509         hc     86    bbb    H10   2509 0.06265900   1.008000   ; qtot 0.203134
 2510         c3     86    bbb     C6   2510 0.11363000  12.010000   ; qtot 0.316764
 2511         hc     86    bbb    H11   2511 0.06265900   1.008000   ; qtot 0.379423
 2512         hc     86    bbb    H12   2512 0.06265900   1.008000   ; qtot 0.442082
 2513         c3     86    bbb     C7   2513 0.05858200  12.010000   ; qtot 0.500664
 2514         h1     86    bbb    H13   2514 0.06123400   1.008000   ; qtot 0.561898
 2515         h1     86    bbb    H14   2515 0.06123400   1.008000   ; qtot 0.623132
 2516         c3     86    bbb     C8   2516 -0.72423400  12.010000   ; qtot -0.101102
 2517         h1     86    bbb    H15   2517 0.25637600   1.008000   ; qtot 0.155274
 2518         h1     86    bbb    H16   2518 0.25637600   1.008000   ; qtot 0.411650
 2519         c3     86    bbb     C9   2519 -0.72423400  12.010000   ; qtot -0.312584
 2520         h1     86    bbb    H17   2520 0.25637600   1.008000   ; qtot -0.056208
 2521         h1     86    bbb    H18   2521 0.25637600   1.008000   ; qtot 0.200168
 2522         os     86    bbb     O1   2522 -0.20025300  16.000000   ; qtot -0.000085
; residue   87 bbb rtp bbb q -0.0
 2523         n3     87    bbb     N1   2523 -0.59685800  14.010000   ; qtot -0.596943
 2524         c3     87    bbb     C1   2524 0.10137000  12.010000   ; qtot -0.495573
 2525         h1     87    bbb     H1   2525 0.04411300   1.008000   ; qtot -0.451460
 2526         h1     87    bbb     H2   2526 0.04411300   1.008000   ; qtot -0.407347
 2527         c3     87    bbb     C2   2527 0.10137000  12.010000   ; qtot -0.305977
 2528         h1     87    bbb     H3   2528 0.04411300   1.008000   ; qtot -0.261864
 2529         h1     87    bbb     H4   2529 0.04411300   1.008000   ; qtot -0.217751
 2530         c3     87    bbb     C3   2530 -0.00195300  12.010000   ; qtot -0.219704
 2531         h1     87    bbb     H5   2531 0.05064400   1.008000   ; qtot -0.169060
 2532         h1     87    bbb     H6   2532 0.05064400   1.008000   ; qtot -0.118416
 2533         c3     87    bbb     C4   2533 -0.01612100  12.010000   ; qtot -0.134537
 2534         hc     87    bbb     H7   2534 0.04936100   1.008000   ; qtot -0.085176
 2535         hc     87    bbb     H8   2535 0.04936100   1.008000   ; qtot -0.035815
 2536         c3     87    bbb     C5   2536 0.11363000  12.010000   ; qtot 0.077815
 2537         hc     87    bbb     H9   2537 0.06265900   1.008000   ; qtot 0.140474
 2538         hc     87    bbb    H10   2538 0.06265900   1.008000   ; qtot 0.203133
 2539         c3     87    bbb     C6   2539 0.11363000  12.010000   ; qtot 0.316763
 2540         hc     87    bbb    H11   2540 0.06265900   1.008000   ; qtot 0.379422
 2541         hc     87    bbb    H12   2541 0.06265900   1.008000   ; qtot 0.442081
 2542         c3     87    bbb     C7   2542 0.05858200  12.010000   ; qtot 0.500663
 2543         h1     87    bbb    H13   2543 0.06123400   1.008000   ; qtot 0.561897
 2544         h1     87    bbb    H14   2544 0.06123400   1.008000   ; qtot 0.623131
 2545         c3     87    bbb     C8   2545 -0.72423400  12.010000   ; qtot -0.101103
 2546         h1     87    bbb    H15   2546 0.25637600   1.008000   ; qtot 0.155273
 2547         h1     87    bbb    H16   2547 0.25637600   1.008000   ; qtot 0.411649
 2548         c3     87    bbb     C9   2548 -0.72423400  12.010000   ; qtot -0.312585
 2549         h1     87    bbb    H17   2549 0.25637600   1.008000   ; qtot -0.056209
 2550         h1     87    bbb    H18   2550 0.25637600   1.008000   ; qtot 0.200167
 2551         os     87    bbb     O1   2551 -0.20025300  16.000000   ; qtot -0.000086
; residue   88 bbb rtp bbb q -0.0
 2552         n3     88    bbb     N1   2552 -0.59685800  14.010000   ; qtot -0.596944
 2553         c3     88    bbb     C1   2553 0.10137000  12.010000   ; qtot -0.495574
 2554         h1     88    bbb     H1   2554 0.04411300   1.008000   ; qtot -0.451461
 2555         h1     88    bbb     H2   2555 0.04411300   1.008000   ; qtot -0.407348
 2556         c3     88    bbb     C2   2556 0.10137000  12.010000   ; qtot -0.305978
 2557         h1     88    bbb     H3   2557 0.04411300   1.008000   ; qtot -0.261865
 2558         h1     88    bbb     H4   2558 0.04411300   1.008000   ; qtot -0.217752
 2559         c3     88    bbb     C3   2559 -0.00195300  12.010000   ; qtot -0.219705
 2560         h1     88    bbb     H5   2560 0.05064400   1.008000   ; qtot -0.169061
 2561         h1     88    bbb     H6   2561 0.05064400   1.008000   ; qtot -0.118417
 2562         c3     88    bbb     C4   2562 -0.01612100  12.010000   ; qtot -0.134538
 2563         hc     88    bbb     H7   2563 0.04936100   1.008000   ; qtot -0.085177
 2564         hc     88    bbb     H8   2564 0.04936100   1.008000   ; qtot -0.035816
 2565         c3     88    bbb     C5   2565 0.11363000  12.010000   ; qtot 0.077814
 2566         hc     88    bbb     H9   2566 0.06265900   1.008000   ; qtot 0.140473
 2567         hc     88    bbb    H10   2567 0.06265900   1.008000   ; qtot 0.203132
 2568         c3     88    bbb     C6   2568 0.11363000  12.010000   ; qtot 0.316762
 2569         hc     88    bbb    H11   2569 0.06265900   1.008000   ; qtot 0.379421
 2570         hc     88    bbb    H12   2570 0.06265900   1.008000   ; qtot 0.442080
 2571         c3     88    bbb     C7   2571 0.05858200  12.010000   ; qtot 0.500662
 2572         h1     88    bbb    H13   2572 0.06123400   1.008000   ; qtot 0.561896
 2573         h1     88    bbb    H14   2573 0.06123400   1.008000   ; qtot 0.623130
 2574         c3     88    bbb     C8   2574 -0.72423400  12.010000   ; qtot -0.101104
 2575         h1     88    bbb    H15   2575 0.25637600   1.008000   ; qtot 0.155272
 2576         h1     88    bbb    H16   2576 0.25637600   1.008000   ; qtot 0.411648
 2577         c3     88    bbb     C9   2577 -0.72423400  12.010000   ; qtot -0.312586
 2578         h1     88    bbb    H17   2578 0.25637600   1.008000   ; qtot -0.056210
 2579         h1     88    bbb    H18   2579 0.25637600   1.008000   ; qtot 0.200166
 2580         os     88    bbb     O1   2580 -0.20025300  16.000000   ; qtot -0.000087
; residue   89 bbb rtp bbb q -0.0
 2581         n3     89    bbb     N1   2581 -0.59685800  14.010000   ; qtot -0.596945
 2582         c3     89    bbb     C1   2582 0.10137000  12.010000   ; qtot -0.495575
 2583         h1     89    bbb     H1   2583 0.04411300   1.008000   ; qtot -0.451462
 2584         h1     89    bbb     H2   2584 0.04411300   1.008000   ; qtot -0.407349
 2585         c3     89    bbb     C2   2585 0.10137000  12.010000   ; qtot -0.305979
 2586         h1     89    bbb     H3   2586 0.04411300   1.008000   ; qtot -0.261866
 2587         h1     89    bbb     H4   2587 0.04411300   1.008000   ; qtot -0.217753
 2588         c3     89    bbb     C3   2588 -0.00195300  12.010000   ; qtot -0.219706
 2589         h1     89    bbb     H5   2589 0.05064400   1.008000   ; qtot -0.169062
 2590         h1     89    bbb     H6   2590 0.05064400   1.008000   ; qtot -0.118418
 2591         c3     89    bbb     C4   2591 -0.01612100  12.010000   ; qtot -0.134539
 2592         hc     89    bbb     H7   2592 0.04936100   1.008000   ; qtot -0.085178
 2593         hc     89    bbb     H8   2593 0.04936100   1.008000   ; qtot -0.035817
 2594         c3     89    bbb     C5   2594 0.11363000  12.010000   ; qtot 0.077813
 2595         hc     89    bbb     H9   2595 0.06265900   1.008000   ; qtot 0.140472
 2596         hc     89    bbb    H10   2596 0.06265900   1.008000   ; qtot 0.203131
 2597         c3     89    bbb     C6   2597 0.11363000  12.010000   ; qtot 0.316761
 2598         hc     89    bbb    H11   2598 0.06265900   1.008000   ; qtot 0.379420
 2599         hc     89    bbb    H12   2599 0.06265900   1.008000   ; qtot 0.442079
 2600         c3     89    bbb     C7   2600 0.05858200  12.010000   ; qtot 0.500661
 2601         h1     89    bbb    H13   2601 0.06123400   1.008000   ; qtot 0.561895
 2602         h1     89    bbb    H14   2602 0.06123400   1.008000   ; qtot 0.623129
 2603         c3     89    bbb     C8   2603 -0.72423400  12.010000   ; qtot -0.101105
 2604         h1     89    bbb    H15   2604 0.25637600   1.008000   ; qtot 0.155271
 2605         h1     89    bbb    H16   2605 0.25637600   1.008000   ; qtot 0.411647
 2606         c3     89    bbb     C9   2606 -0.72423400  12.010000   ; qtot -0.312587
 2607         h1     89    bbb    H17   2607 0.25637600   1.008000   ; qtot -0.056211
 2608         h1     89    bbb    H18   2608 0.25637600   1.008000   ; qtot 0.200165
 2609         os     89    bbb     O1   2609 -0.20025300  16.000000   ; qtot -0.000088
; residue   90 bbb rtp bbb q -0.0
 2610         n3     90    bbb     N1   2610 -0.59685800  14.010000   ; qtot -0.596946
 2611         c3     90    bbb     C1   2611 0.10137000  12.010000   ; qtot -0.495576
 2612         h1     90    bbb     H1   2612 0.04411300   1.008000   ; qtot -0.451463
 2613         h1     90    bbb     H2   2613 0.04411300   1.008000   ; qtot -0.407350
 2614         c3     90    bbb     C2   2614 0.10137000  12.010000   ; qtot -0.305980
 2615         h1     90    bbb     H3   2615 0.04411300   1.008000   ; qtot -0.261867
 2616         h1     90    bbb     H4   2616 0.04411300   1.008000   ; qtot -0.217754
 2617         c3     90    bbb     C3   2617 -0.00195300  12.010000   ; qtot -0.219707
 2618         h1     90    bbb     H5   2618 0.05064400   1.008000   ; qtot -0.169063
 2619         h1     90    bbb     H6   2619 0.05064400   1.008000   ; qtot -0.118419
 2620         c3     90    bbb     C4   2620 -0.01612100  12.010000   ; qtot -0.134540
 2621         hc     90    bbb     H7   2621 0.04936100   1.008000   ; qtot -0.085179
 2622         hc     90    bbb     H8   2622 0.04936100   1.008000   ; qtot -0.035818
 2623         c3     90    bbb     C5   2623 0.11363000  12.010000   ; qtot 0.077812
 2624         hc     90    bbb     H9   2624 0.06265900   1.008000   ; qtot 0.140471
 2625         hc     90    bbb    H10   2625 0.06265900   1.008000   ; qtot 0.203130
 2626         c3     90    bbb     C6   2626 0.11363000  12.010000   ; qtot 0.316760
 2627         hc     90    bbb    H11   2627 0.06265900   1.008000   ; qtot 0.379419
 2628         hc     90    bbb    H12   2628 0.06265900   1.008000   ; qtot 0.442078
 2629         c3     90    bbb     C7   2629 0.05858200  12.010000   ; qtot 0.500660
 2630         h1     90    bbb    H13   2630 0.06123400   1.008000   ; qtot 0.561894
 2631         h1     90    bbb    H14   2631 0.06123400   1.008000   ; qtot 0.623128
 2632         c3     90    bbb     C8   2632 -0.72423400  12.010000   ; qtot -0.101106
 2633         h1     90    bbb    H15   2633 0.25637600   1.008000   ; qtot 0.155270
 2634         h1     90    bbb    H16   2634 0.25637600   1.008000   ; qtot 0.411646
 2635         c3     90    bbb     C9   2635 -0.72423400  12.010000   ; qtot -0.312588
 2636         h1     90    bbb    H17   2636 0.25637600   1.008000   ; qtot -0.056212
 2637         h1     90    bbb    H18   2637 0.25637600   1.008000   ; qtot 0.200164
 2638         os     90    bbb     O1   2638 -0.20025300  16.000000   ; qtot -0.000089
; residue   91 bbb rtp bbb q -0.0
 2639         n3     91    bbb     N1   2639 -0.59685800  14.010000   ; qtot -0.596947
 2640         c3     91    bbb     C1   2640 0.10137000  12.010000   ; qtot -0.495577
 2641         h1     91    bbb     H1   2641 0.04411300   1.008000   ; qtot -0.451464
 2642         h1     91    bbb     H2   2642 0.04411300   1.008000   ; qtot -0.407351
 2643         c3     91    bbb     C2   2643 0.10137000  12.010000   ; qtot -0.305981
 2644         h1     91    bbb     H3   2644 0.04411300   1.008000   ; qtot -0.261868
 2645         h1     91    bbb     H4   2645 0.04411300   1.008000   ; qtot -0.217755
 2646         c3     91    bbb     C3   2646 -0.00195300  12.010000   ; qtot -0.219708
 2647         h1     91    bbb     H5   2647 0.05064400   1.008000   ; qtot -0.169064
 2648         h1     91    bbb     H6   2648 0.05064400   1.008000   ; qtot -0.118420
 2649         c3     91    bbb     C4   2649 -0.01612100  12.010000   ; qtot -0.134541
 2650         hc     91    bbb     H7   2650 0.04936100   1.008000   ; qtot -0.085180
 2651         hc     91    bbb     H8   2651 0.04936100   1.008000   ; qtot -0.035819
 2652         c3     91    bbb     C5   2652 0.11363000  12.010000   ; qtot 0.077811
 2653         hc     91    bbb     H9   2653 0.06265900   1.008000   ; qtot 0.140470
 2654         hc     91    bbb    H10   2654 0.06265900   1.008000   ; qtot 0.203129
 2655         c3     91    bbb     C6   2655 0.11363000  12.010000   ; qtot 0.316759
 2656         hc     91    bbb    H11   2656 0.06265900   1.008000   ; qtot 0.379418
 2657         hc     91    bbb    H12   2657 0.06265900   1.008000   ; qtot 0.442077
 2658         c3     91    bbb     C7   2658 0.05858200  12.010000   ; qtot 0.500659
 2659         h1     91    bbb    H13   2659 0.06123400   1.008000   ; qtot 0.561893
 2660         h1     91    bbb    H14   2660 0.06123400   1.008000   ; qtot 0.623127
 2661         c3     91    bbb     C8   2661 -0.72423400  12.010000   ; qtot -0.101107
 2662         h1     91    bbb    H15   2662 0.25637600   1.008000   ; qtot 0.155269
 2663         h1     91    bbb    H16   2663 0.25637600   1.008000   ; qtot 0.411645
 2664         c3     91    bbb     C9   2664 -0.72423400  12.010000   ; qtot -0.312589
 2665         h1     91    bbb    H17   2665 0.25637600   1.008000   ; qtot -0.056213
 2666         h1     91    bbb    H18   2666 0.25637600   1.008000   ; qtot 0.200163
 2667         os     91    bbb     O1   2667 -0.20025300  16.000000   ; qtot -0.000090
; residue   92 bbb rtp bbb q -0.0
 2668         n3     92    bbb     N1   2668 -0.59685800  14.010000   ; qtot -0.596948
 2669         c3     92    bbb     C1   2669 0.10137000  12.010000   ; qtot -0.495578
 2670         h1     92    bbb     H1   2670 0.04411300   1.008000   ; qtot -0.451465
 2671         h1     92    bbb     H2   2671 0.04411300   1.008000   ; qtot -0.407352
 2672         c3     92    bbb     C2   2672 0.10137000  12.010000   ; qtot -0.305982
 2673         h1     92    bbb     H3   2673 0.04411300   1.008000   ; qtot -0.261869
 2674         h1     92    bbb     H4   2674 0.04411300   1.008000   ; qtot -0.217756
 2675         c3     92    bbb     C3   2675 -0.00195300  12.010000   ; qtot -0.219709
 2676         h1     92    bbb     H5   2676 0.05064400   1.008000   ; qtot -0.169065
 2677         h1     92    bbb     H6   2677 0.05064400   1.008000   ; qtot -0.118421
 2678         c3     92    bbb     C4   2678 -0.01612100  12.010000   ; qtot -0.134542
 2679         hc     92    bbb     H7   2679 0.04936100   1.008000   ; qtot -0.085181
 2680         hc     92    bbb     H8   2680 0.04936100   1.008000   ; qtot -0.035820
 2681         c3     92    bbb     C5   2681 0.11363000  12.010000   ; qtot 0.077810
 2682         hc     92    bbb     H9   2682 0.06265900   1.008000   ; qtot 0.140469
 2683         hc     92    bbb    H10   2683 0.06265900   1.008000   ; qtot 0.203128
 2684         c3     92    bbb     C6   2684 0.11363000  12.010000   ; qtot 0.316758
 2685         hc     92    bbb    H11   2685 0.06265900   1.008000   ; qtot 0.379417
 2686         hc     92    bbb    H12   2686 0.06265900   1.008000   ; qtot 0.442076
 2687         c3     92    bbb     C7   2687 0.05858200  12.010000   ; qtot 0.500658
 2688         h1     92    bbb    H13   2688 0.06123400   1.008000   ; qtot 0.561892
 2689         h1     92    bbb    H14   2689 0.06123400   1.008000   ; qtot 0.623126
 2690         c3     92    bbb     C8   2690 -0.72423400  12.010000   ; qtot -0.101108
 2691         h1     92    bbb    H15   2691 0.25637600   1.008000   ; qtot 0.155268
 2692         h1     92    bbb    H16   2692 0.25637600   1.008000   ; qtot 0.411644
 2693         c3     92    bbb     C9   2693 -0.72423400  12.010000   ; qtot -0.312590
 2694         h1     92    bbb    H17   2694 0.25637600   1.008000   ; qtot -0.056214
 2695         h1     92    bbb    H18   2695 0.25637600   1.008000   ; qtot 0.200162
 2696         os     92    bbb     O1   2696 -0.20025300  16.000000   ; qtot -0.000091
; residue   93 bbb rtp bbb q -0.0
 2697         n3     93    bbb     N1   2697 -0.59685800  14.010000   ; qtot -0.596949
 2698         c3     93    bbb     C1   2698 0.10137000  12.010000   ; qtot -0.495579
 2699         h1     93    bbb     H1   2699 0.04411300   1.008000   ; qtot -0.451466
 2700         h1     93    bbb     H2   2700 0.04411300   1.008000   ; qtot -0.407353
 2701         c3     93    bbb     C2   2701 0.10137000  12.010000   ; qtot -0.305983
 2702         h1     93    bbb     H3   2702 0.04411300   1.008000   ; qtot -0.261870
 2703         h1     93    bbb     H4   2703 0.04411300   1.008000   ; qtot -0.217757
 2704         c3     93    bbb     C3   2704 -0.00195300  12.010000   ; qtot -0.219710
 2705         h1     93    bbb     H5   2705 0.05064400   1.008000   ; qtot -0.169066
 2706         h1     93    bbb     H6   2706 0.05064400   1.008000   ; qtot -0.118422
 2707         c3     93    bbb     C4   2707 -0.01612100  12.010000   ; qtot -0.134543
 2708         hc     93    bbb     H7   2708 0.04936100   1.008000   ; qtot -0.085182
 2709         hc     93    bbb     H8   2709 0.04936100   1.008000   ; qtot -0.035821
 2710         c3     93    bbb     C5   2710 0.11363000  12.010000   ; qtot 0.077809
 2711         hc     93    bbb     H9   2711 0.06265900   1.008000   ; qtot 0.140468
 2712         hc     93    bbb    H10   2712 0.06265900   1.008000   ; qtot 0.203127
 2713         c3     93    bbb     C6   2713 0.11363000  12.010000   ; qtot 0.316757
 2714         hc     93    bbb    H11   2714 0.06265900   1.008000   ; qtot 0.379416
 2715         hc     93    bbb    H12   2715 0.06265900   1.008000   ; qtot 0.442075
 2716         c3     93    bbb     C7   2716 0.05858200  12.010000   ; qtot 0.500657
 2717         h1     93    bbb    H13   2717 0.06123400   1.008000   ; qtot 0.561891
 2718         h1     93    bbb    H14   2718 0.06123400   1.008000   ; qtot 0.623125
 2719         c3     93    bbb     C8   2719 -0.72423400  12.010000   ; qtot -0.101109
 2720         h1     93    bbb    H15   2720 0.25637600   1.008000   ; qtot 0.155267
 2721         h1     93    bbb    H16   2721 0.25637600   1.008000   ; qtot 0.411643
 2722         c3     93    bbb     C9   2722 -0.72423400  12.010000   ; qtot -0.312591
 2723         h1     93    bbb    H17   2723 0.25637600   1.008000   ; qtot -0.056215
 2724         h1     93    bbb    H18   2724 0.25637600   1.008000   ; qtot 0.200161
 2725         os     93    bbb     O1   2725 -0.20025300  16.000000   ; qtot -0.000092
; residue   94 bbb rtp bbb q -0.0
 2726         n3     94    bbb     N1   2726 -0.59685800  14.010000   ; qtot -0.596950
 2727         c3     94    bbb     C1   2727 0.10137000  12.010000   ; qtot -0.495580
 2728         h1     94    bbb     H1   2728 0.04411300   1.008000   ; qtot -0.451467
 2729         h1     94    bbb     H2   2729 0.04411300   1.008000   ; qtot -0.407354
 2730         c3     94    bbb     C2   2730 0.10137000  12.010000   ; qtot -0.305984
 2731         h1     94    bbb     H3   2731 0.04411300   1.008000   ; qtot -0.261871
 2732         h1     94    bbb     H4   2732 0.04411300   1.008000   ; qtot -0.217758
 2733         c3     94    bbb     C3   2733 -0.00195300  12.010000   ; qtot -0.219711
 2734         h1     94    bbb     H5   2734 0.05064400   1.008000   ; qtot -0.169067
 2735         h1     94    bbb     H6   2735 0.05064400   1.008000   ; qtot -0.118423
 2736         c3     94    bbb     C4   2736 -0.01612100  12.010000   ; qtot -0.134544
 2737         hc     94    bbb     H7   2737 0.04936100   1.008000   ; qtot -0.085183
 2738         hc     94    bbb     H8   2738 0.04936100   1.008000   ; qtot -0.035822
 2739         c3     94    bbb     C5   2739 0.11363000  12.010000   ; qtot 0.077808
 2740         hc     94    bbb     H9   2740 0.06265900   1.008000   ; qtot 0.140467
 2741         hc     94    bbb    H10   2741 0.06265900   1.008000   ; qtot 0.203126
 2742         c3     94    bbb     C6   2742 0.11363000  12.010000   ; qtot 0.316756
 2743         hc     94    bbb    H11   2743 0.06265900   1.008000   ; qtot 0.379415
 2744         hc     94    bbb    H12   2744 0.06265900   1.008000   ; qtot 0.442074
 2745         c3     94    bbb     C7   2745 0.05858200  12.010000   ; qtot 0.500656
 2746         h1     94    bbb    H13   2746 0.06123400   1.008000   ; qtot 0.561890
 2747         h1     94    bbb    H14   2747 0.06123400   1.008000   ; qtot 0.623124
 2748         c3     94    bbb     C8   2748 -0.72423400  12.010000   ; qtot -0.101110
 2749         h1     94    bbb    H15   2749 0.25637600   1.008000   ; qtot 0.155266
 2750         h1     94    bbb    H16   2750 0.25637600   1.008000   ; qtot 0.411642
 2751         c3     94    bbb     C9   2751 -0.72423400  12.010000   ; qtot -0.312592
 2752         h1     94    bbb    H17   2752 0.25637600   1.008000   ; qtot -0.056216
 2753         h1     94    bbb    H18   2753 0.25637600   1.008000   ; qtot 0.200160
 2754         os     94    bbb     O1   2754 -0.20025300  16.000000   ; qtot -0.000093
; residue   95 bbb rtp bbb q -0.0
 2755         n3     95    bbb     N1   2755 -0.59685800  14.010000   ; qtot -0.596951
 2756         c3     95    bbb     C1   2756 0.10137000  12.010000   ; qtot -0.495581
 2757         h1     95    bbb     H1   2757 0.04411300   1.008000   ; qtot -0.451468
 2758         h1     95    bbb     H2   2758 0.04411300   1.008000   ; qtot -0.407355
 2759         c3     95    bbb     C2   2759 0.10137000  12.010000   ; qtot -0.305985
 2760         h1     95    bbb     H3   2760 0.04411300   1.008000   ; qtot -0.261872
 2761         h1     95    bbb     H4   2761 0.04411300   1.008000   ; qtot -0.217759
 2762         c3     95    bbb     C3   2762 -0.00195300  12.010000   ; qtot -0.219712
 2763         h1     95    bbb     H5   2763 0.05064400   1.008000   ; qtot -0.169068
 2764         h1     95    bbb     H6   2764 0.05064400   1.008000   ; qtot -0.118424
 2765         c3     95    bbb     C4   2765 -0.01612100  12.010000   ; qtot -0.134545
 2766         hc     95    bbb     H7   2766 0.04936100   1.008000   ; qtot -0.085184
 2767         hc     95    bbb     H8   2767 0.04936100   1.008000   ; qtot -0.035823
 2768         c3     95    bbb     C5   2768 0.11363000  12.010000   ; qtot 0.077807
 2769         hc     95    bbb     H9   2769 0.06265900   1.008000   ; qtot 0.140466
 2770         hc     95    bbb    H10   2770 0.06265900   1.008000   ; qtot 0.203125
 2771         c3     95    bbb     C6   2771 0.11363000  12.010000   ; qtot 0.316755
 2772         hc     95    bbb    H11   2772 0.06265900   1.008000   ; qtot 0.379414
 2773         hc     95    bbb    H12   2773 0.06265900   1.008000   ; qtot 0.442073
 2774         c3     95    bbb     C7   2774 0.05858200  12.010000   ; qtot 0.500655
 2775         h1     95    bbb    H13   2775 0.06123400   1.008000   ; qtot 0.561889
 2776         h1     95    bbb    H14   2776 0.06123400   1.008000   ; qtot 0.623123
 2777         c3     95    bbb     C8   2777 -0.72423400  12.010000   ; qtot -0.101111
 2778         h1     95    bbb    H15   2778 0.25637600   1.008000   ; qtot 0.155265
 2779         h1     95    bbb    H16   2779 0.25637600   1.008000   ; qtot 0.411641
 2780         c3     95    bbb     C9   2780 -0.72423400  12.010000   ; qtot -0.312593
 2781         h1     95    bbb    H17   2781 0.25637600   1.008000   ; qtot -0.056217
 2782         h1     95    bbb    H18   2782 0.25637600   1.008000   ; qtot 0.200159
 2783         os     95    bbb     O1   2783 -0.20025300  16.000000   ; qtot -0.000094
; residue   96 bbb rtp bbb q -0.0
 2784         n3     96    bbb     N1   2784 -0.59685800  14.010000   ; qtot -0.596952
 2785         c3     96    bbb     C1   2785 0.10137000  12.010000   ; qtot -0.495582
 2786         h1     96    bbb     H1   2786 0.04411300   1.008000   ; qtot -0.451469
 2787         h1     96    bbb     H2   2787 0.04411300   1.008000   ; qtot -0.407356
 2788         c3     96    bbb     C2   2788 0.10137000  12.010000   ; qtot -0.305986
 2789         h1     96    bbb     H3   2789 0.04411300   1.008000   ; qtot -0.261873
 2790         h1     96    bbb     H4   2790 0.04411300   1.008000   ; qtot -0.217760
 2791         c3     96    bbb     C3   2791 -0.00195300  12.010000   ; qtot -0.219713
 2792         h1     96    bbb     H5   2792 0.05064400   1.008000   ; qtot -0.169069
 2793         h1     96    bbb     H6   2793 0.05064400   1.008000   ; qtot -0.118425
 2794         c3     96    bbb     C4   2794 -0.01612100  12.010000   ; qtot -0.134546
 2795         hc     96    bbb     H7   2795 0.04936100   1.008000   ; qtot -0.085185
 2796         hc     96    bbb     H8   2796 0.04936100   1.008000   ; qtot -0.035824
 2797         c3     96    bbb     C5   2797 0.11363000  12.010000   ; qtot 0.077806
 2798         hc     96    bbb     H9   2798 0.06265900   1.008000   ; qtot 0.140465
 2799         hc     96    bbb    H10   2799 0.06265900   1.008000   ; qtot 0.203124
 2800         c3     96    bbb     C6   2800 0.11363000  12.010000   ; qtot 0.316754
 2801         hc     96    bbb    H11   2801 0.06265900   1.008000   ; qtot 0.379413
 2802         hc     96    bbb    H12   2802 0.06265900   1.008000   ; qtot 0.442072
 2803         c3     96    bbb     C7   2803 0.05858200  12.010000   ; qtot 0.500654
 2804         h1     96    bbb    H13   2804 0.06123400   1.008000   ; qtot 0.561888
 2805         h1     96    bbb    H14   2805 0.06123400   1.008000   ; qtot 0.623122
 2806         c3     96    bbb     C8   2806 -0.72423400  12.010000   ; qtot -0.101112
 2807         h1     96    bbb    H15   2807 0.25637600   1.008000   ; qtot 0.155264
 2808         h1     96    bbb    H16   2808 0.25637600   1.008000   ; qtot 0.411640
 2809         c3     96    bbb     C9   2809 -0.72423400  12.010000   ; qtot -0.312594
 2810         h1     96    bbb    H17   2810 0.25637600   1.008000   ; qtot -0.056218
 2811         h1     96    bbb    H18   2811 0.25637600   1.008000   ; qtot 0.200158
 2812         os     96    bbb     O1   2812 -0.20025300  16.000000   ; qtot -0.000095
; residue   97 bbb rtp bbb q -0.0
 2813         n3     97    bbb     N1   2813 -0.59685800  14.010000   ; qtot -0.596953
 2814         c3     97    bbb     C1   2814 0.10137000  12.010000   ; qtot -0.495583
 2815         h1     97    bbb     H1   2815 0.04411300   1.008000   ; qtot -0.451470
 2816         h1     97    bbb     H2   2816 0.04411300   1.008000   ; qtot -0.407357
 2817         c3     97    bbb     C2   2817 0.10137000  12.010000   ; qtot -0.305987
 2818         h1     97    bbb     H3   2818 0.04411300   1.008000   ; qtot -0.261874
 2819         h1     97    bbb     H4   2819 0.04411300   1.008000   ; qtot -0.217761
 2820         c3     97    bbb     C3   2820 -0.00195300  12.010000   ; qtot -0.219714
 2821         h1     97    bbb     H5   2821 0.05064400   1.008000   ; qtot -0.169070
 2822         h1     97    bbb     H6   2822 0.05064400   1.008000   ; qtot -0.118426
 2823         c3     97    bbb     C4   2823 -0.01612100  12.010000   ; qtot -0.134547
 2824         hc     97    bbb     H7   2824 0.04936100   1.008000   ; qtot -0.085186
 2825         hc     97    bbb     H8   2825 0.04936100   1.008000   ; qtot -0.035825
 2826         c3     97    bbb     C5   2826 0.11363000  12.010000   ; qtot 0.077805
 2827         hc     97    bbb     H9   2827 0.06265900   1.008000   ; qtot 0.140464
 2828         hc     97    bbb    H10   2828 0.06265900   1.008000   ; qtot 0.203123
 2829         c3     97    bbb     C6   2829 0.11363000  12.010000   ; qtot 0.316753
 2830         hc     97    bbb    H11   2830 0.06265900   1.008000   ; qtot 0.379412
 2831         hc     97    bbb    H12   2831 0.06265900   1.008000   ; qtot 0.442071
 2832         c3     97    bbb     C7   2832 0.05858200  12.010000   ; qtot 0.500653
 2833         h1     97    bbb    H13   2833 0.06123400   1.008000   ; qtot 0.561887
 2834         h1     97    bbb    H14   2834 0.06123400   1.008000   ; qtot 0.623121
 2835         c3     97    bbb     C8   2835 -0.72423400  12.010000   ; qtot -0.101113
 2836         h1     97    bbb    H15   2836 0.25637600   1.008000   ; qtot 0.155263
 2837         h1     97    bbb    H16   2837 0.25637600   1.008000   ; qtot 0.411639
 2838         c3     97    bbb     C9   2838 -0.72423400  12.010000   ; qtot -0.312595
 2839         h1     97    bbb    H17   2839 0.25637600   1.008000   ; qtot -0.056219
 2840         h1     97    bbb    H18   2840 0.25637600   1.008000   ; qtot 0.200157
 2841         os     97    bbb     O1   2841 -0.20025300  16.000000   ; qtot -0.000096
; residue   98 bbb rtp bbb q -0.0
 2842         n3     98    bbb     N1   2842 -0.59685800  14.010000   ; qtot -0.596954
 2843         c3     98    bbb     C1   2843 0.10137000  12.010000   ; qtot -0.495584
 2844         h1     98    bbb     H1   2844 0.04411300   1.008000   ; qtot -0.451471
 2845         h1     98    bbb     H2   2845 0.04411300   1.008000   ; qtot -0.407358
 2846         c3     98    bbb     C2   2846 0.10137000  12.010000   ; qtot -0.305988
 2847         h1     98    bbb     H3   2847 0.04411300   1.008000   ; qtot -0.261875
 2848         h1     98    bbb     H4   2848 0.04411300   1.008000   ; qtot -0.217762
 2849         c3     98    bbb     C3   2849 -0.00195300  12.010000   ; qtot -0.219715
 2850         h1     98    bbb     H5   2850 0.05064400   1.008000   ; qtot -0.169071
 2851         h1     98    bbb     H6   2851 0.05064400   1.008000   ; qtot -0.118427
 2852         c3     98    bbb     C4   2852 -0.01612100  12.010000   ; qtot -0.134548
 2853         hc     98    bbb     H7   2853 0.04936100   1.008000   ; qtot -0.085187
 2854         hc     98    bbb     H8   2854 0.04936100   1.008000   ; qtot -0.035826
 2855         c3     98    bbb     C5   2855 0.11363000  12.010000   ; qtot 0.077804
 2856         hc     98    bbb     H9   2856 0.06265900   1.008000   ; qtot 0.140463
 2857         hc     98    bbb    H10   2857 0.06265900   1.008000   ; qtot 0.203122
 2858         c3     98    bbb     C6   2858 0.11363000  12.010000   ; qtot 0.316752
 2859         hc     98    bbb    H11   2859 0.06265900   1.008000   ; qtot 0.379411
 2860         hc     98    bbb    H12   2860 0.06265900   1.008000   ; qtot 0.442070
 2861         c3     98    bbb     C7   2861 0.05858200  12.010000   ; qtot 0.500652
 2862         h1     98    bbb    H13   2862 0.06123400   1.008000   ; qtot 0.561886
 2863         h1     98    bbb    H14   2863 0.06123400   1.008000   ; qtot 0.623120
 2864         c3     98    bbb     C8   2864 -0.72423400  12.010000   ; qtot -0.101114
 2865         h1     98    bbb    H15   2865 0.25637600   1.008000   ; qtot 0.155262
 2866         h1     98    bbb    H16   2866 0.25637600   1.008000   ; qtot 0.411638
 2867         c3     98    bbb     C9   2867 -0.72423400  12.010000   ; qtot -0.312596
 2868         h1     98    bbb    H17   2868 0.25637600   1.008000   ; qtot -0.056220
 2869         h1     98    bbb    H18   2869 0.25637600   1.008000   ; qtot 0.200156
 2870         os     98    bbb     O1   2870 -0.20025300  16.000000   ; qtot -0.000097
; residue   99 bbb rtp bbb q -0.0
 2871         n3     99    bbb     N1   2871 -0.59685800  14.010000   ; qtot -0.596955
 2872         c3     99    bbb     C1   2872 0.10137000  12.010000   ; qtot -0.495585
 2873         h1     99    bbb     H1   2873 0.04411300   1.008000   ; qtot -0.451472
 2874         h1     99    bbb     H2   2874 0.04411300   1.008000   ; qtot -0.407359
 2875         c3     99    bbb     C2   2875 0.10137000  12.010000   ; qtot -0.305989
 2876         h1     99    bbb     H3   2876 0.04411300   1.008000   ; qtot -0.261876
 2877         h1     99    bbb     H4   2877 0.04411300   1.008000   ; qtot -0.217763
 2878         c3     99    bbb     C3   2878 -0.00195300  12.010000   ; qtot -0.219716
 2879         h1     99    bbb     H5   2879 0.05064400   1.008000   ; qtot -0.169072
 2880         h1     99    bbb     H6   2880 0.05064400   1.008000   ; qtot -0.118428
 2881         c3     99    bbb     C4   2881 -0.01612100  12.010000   ; qtot -0.134549
 2882         hc     99    bbb     H7   2882 0.04936100   1.008000   ; qtot -0.085188
 2883         hc     99    bbb     H8   2883 0.04936100   1.008000   ; qtot -0.035827
 2884         c3     99    bbb     C5   2884 0.11363000  12.010000   ; qtot 0.077803
 2885         hc     99    bbb     H9   2885 0.06265900   1.008000   ; qtot 0.140462
 2886         hc     99    bbb    H10   2886 0.06265900   1.008000   ; qtot 0.203121
 2887         c3     99    bbb     C6   2887 0.11363000  12.010000   ; qtot 0.316751
 2888         hc     99    bbb    H11   2888 0.06265900   1.008000   ; qtot 0.379410
 2889         hc     99    bbb    H12   2889 0.06265900   1.008000   ; qtot 0.442069
 2890         c3     99    bbb     C7   2890 0.05858200  12.010000   ; qtot 0.500651
 2891         h1     99    bbb    H13   2891 0.06123400   1.008000   ; qtot 0.561885
 2892         h1     99    bbb    H14   2892 0.06123400   1.008000   ; qtot 0.623119
 2893         c3     99    bbb     C8   2893 -0.72423400  12.010000   ; qtot -0.101115
 2894         h1     99    bbb    H15   2894 0.25637600   1.008000   ; qtot 0.155261
 2895         h1     99    bbb    H16   2895 0.25637600   1.008000   ; qtot 0.411637
 2896         c3     99    bbb     C9   2896 -0.72423400  12.010000   ; qtot -0.312597
 2897         h1     99    bbb    H17   2897 0.25637600   1.008000   ; qtot -0.056221
 2898         h1     99    bbb    H18   2898 0.25637600   1.008000   ; qtot 0.200155
 2899         os     99    bbb     O1   2899 -0.20025300  16.000000   ; qtot -0.000098
; residue  100 bbb rtp bbb q -0.0
 2900         n3    100    bbb     N1   2900 -0.59685800  14.010000   ; qtot -0.596956
 2901         c3    100    bbb     C1   2901 0.10137000  12.010000   ; qtot -0.495586
 2902         h1    100    bbb     H1   2902 0.04411300   1.008000   ; qtot -0.451473
 2903         h1    100    bbb     H2   2903 0.04411300   1.008000   ; qtot -0.407360
 2904         c3    100    bbb     C2   2904 0.10137000  12.010000   ; qtot -0.305990
 2905         h1    100    bbb     H3   2905 0.04411300   1.008000   ; qtot -0.261877
 2906         h1    100    bbb     H4   2906 0.04411300   1.008000   ; qtot -0.217764
 2907         c3    100    bbb     C3   2907 -0.00195300  12.010000   ; qtot -0.219717
 2908         h1    100    bbb     H5   2908 0.05064400   1.008000   ; qtot -0.169073
 2909         h1    100    bbb     H6   2909 0.05064400   1.008000   ; qtot -0.118429
 2910         c3    100    bbb     C4   2910 -0.01612100  12.010000   ; qtot -0.134550
 2911         hc    100    bbb     H7   2911 0.04936100   1.008000   ; qtot -0.085189
 2912         hc    100    bbb     H8   2912 0.04936100   1.008000   ; qtot -0.035828
 2913         c3    100    bbb     C5   2913 0.11363000  12.010000   ; qtot 0.077802
 2914         hc    100    bbb     H9   2914 0.06265900   1.008000   ; qtot 0.140461
 2915         hc    100    bbb    H10   2915 0.06265900   1.008000   ; qtot 0.203120
 2916         c3    100    bbb     C6   2916 0.11363000  12.010000   ; qtot 0.316750
 2917         hc    100    bbb    H11   2917 0.06265900   1.008000   ; qtot 0.379409
 2918         hc    100    bbb    H12   2918 0.06265900   1.008000   ; qtot 0.442068
 2919         c3    100    bbb     C7   2919 0.05858200  12.010000   ; qtot 0.500650
 2920         h1    100    bbb    H13   2920 0.06123400   1.008000   ; qtot 0.561884
 2921         h1    100    bbb    H14   2921 0.06123400   1.008000   ; qtot 0.623118
 2922         c3    100    bbb     C8   2922 -0.72423400  12.010000   ; qtot -0.101116
 2923         h1    100    bbb    H15   2923 0.25637600   1.008000   ; qtot 0.155260
 2924         h1    100    bbb    H16   2924 0.25637600   1.008000   ; qtot 0.411636
 2925         c3    100    bbb     C9   2925 -0.72423400  12.010000   ; qtot -0.312598
 2926         h1    100    bbb    H17   2926 0.25637600   1.008000   ; qtot -0.056222
 2927         h1    100    bbb    H18   2927 0.25637600   1.008000   ; qtot 0.200154
 2928         os    100    bbb     O1   2928 -0.20025300  16.000000   ; qtot -0.000099
; residue  101 bbb rtp bbb q -0.0
 2929         n3    101    bbb     N1   2929 -0.59685800  14.010000   ; qtot -0.596957
 2930         c3    101    bbb     C1   2930 0.10137000  12.010000   ; qtot -0.495587
 2931         h1    101    bbb     H1   2931 0.04411300   1.008000   ; qtot -0.451474
 2932         h1    101    bbb     H2   2932 0.04411300   1.008000   ; qtot -0.407361
 2933         c3    101    bbb     C2   2933 0.10137000  12.010000   ; qtot -0.305991
 2934         h1    101    bbb     H3   2934 0.04411300   1.008000   ; qtot -0.261878
 2935         h1    101    bbb     H4   2935 0.04411300   1.008000   ; qtot -0.217765
 2936         c3    101    bbb     C3   2936 -0.00195300  12.010000   ; qtot -0.219718
 2937         h1    101    bbb     H5   2937 0.05064400   1.008000   ; qtot -0.169074
 2938         h1    101    bbb     H6   2938 0.05064400   1.008000   ; qtot -0.118430
 2939         c3    101    bbb     C4   2939 -0.01612100  12.010000   ; qtot -0.134551
 2940         hc    101    bbb     H7   2940 0.04936100   1.008000   ; qtot -0.085190
 2941         hc    101    bbb     H8   2941 0.04936100   1.008000   ; qtot -0.035829
 2942         c3    101    bbb     C5   2942 0.11363000  12.010000   ; qtot 0.077801
 2943         hc    101    bbb     H9   2943 0.06265900   1.008000   ; qtot 0.140460
 2944         hc    101    bbb    H10   2944 0.06265900   1.008000   ; qtot 0.203119
 2945         c3    101    bbb     C6   2945 0.11363000  12.010000   ; qtot 0.316749
 2946         hc    101    bbb    H11   2946 0.06265900   1.008000   ; qtot 0.379408
 2947         hc    101    bbb    H12   2947 0.06265900   1.008000   ; qtot 0.442067
 2948         c3    101    bbb     C7   2948 0.05858200  12.010000   ; qtot 0.500649
 2949         h1    101    bbb    H13   2949 0.06123400   1.008000   ; qtot 0.561883
 2950         h1    101    bbb    H14   2950 0.06123400   1.008000   ; qtot 0.623117
 2951         c3    101    bbb     C8   2951 -0.72423400  12.010000   ; qtot -0.101117
 2952         h1    101    bbb    H15   2952 0.25637600   1.008000   ; qtot 0.155259
 2953         h1    101    bbb    H16   2953 0.25637600   1.008000   ; qtot 0.411635
 2954         c3    101    bbb     C9   2954 -0.72423400  12.010000   ; qtot -0.312599
 2955         h1    101    bbb    H17   2955 0.25637600   1.008000   ; qtot -0.056223
 2956         h1    101    bbb    H18   2956 0.25637600   1.008000   ; qtot 0.200153
 2957         os    101    bbb     O1   2957 -0.20025300  16.000000   ; qtot -0.000100
; residue  102 bbb rtp bbb q -0.0
 2958         n3    102    bbb     N1   2958 -0.59685800  14.010000   ; qtot -0.596958
 2959         c3    102    bbb     C1   2959 0.10137000  12.010000   ; qtot -0.495588
 2960         h1    102    bbb     H1   2960 0.04411300   1.008000   ; qtot -0.451475
 2961         h1    102    bbb     H2   2961 0.04411300   1.008000   ; qtot -0.407362
 2962         c3    102    bbb     C2   2962 0.10137000  12.010000   ; qtot -0.305992
 2963         h1    102    bbb     H3   2963 0.04411300   1.008000   ; qtot -0.261879
 2964         h1    102    bbb     H4   2964 0.04411300   1.008000   ; qtot -0.217766
 2965         c3    102    bbb     C3   2965 -0.00195300  12.010000   ; qtot -0.219719
 2966         h1    102    bbb     H5   2966 0.05064400   1.008000   ; qtot -0.169075
 2967         h1    102    bbb     H6   2967 0.05064400   1.008000   ; qtot -0.118431
 2968         c3    102    bbb     C4   2968 -0.01612100  12.010000   ; qtot -0.134552
 2969         hc    102    bbb     H7   2969 0.04936100   1.008000   ; qtot -0.085191
 2970         hc    102    bbb     H8   2970 0.04936100   1.008000   ; qtot -0.035830
 2971         c3    102    bbb     C5   2971 0.11363000  12.010000   ; qtot 0.077800
 2972         hc    102    bbb     H9   2972 0.06265900   1.008000   ; qtot 0.140459
 2973         hc    102    bbb    H10   2973 0.06265900   1.008000   ; qtot 0.203118
 2974         c3    102    bbb     C6   2974 0.11363000  12.010000   ; qtot 0.316748
 2975         hc    102    bbb    H11   2975 0.06265900   1.008000   ; qtot 0.379407
 2976         hc    102    bbb    H12   2976 0.06265900   1.008000   ; qtot 0.442066
 2977         c3    102    bbb     C7   2977 0.05858200  12.010000   ; qtot 0.500648
 2978         h1    102    bbb    H13   2978 0.06123400   1.008000   ; qtot 0.561882
 2979         h1    102    bbb    H14   2979 0.06123400   1.008000   ; qtot 0.623116
 2980         c3    102    bbb     C8   2980 -0.72423400  12.010000   ; qtot -0.101118
 2981         h1    102    bbb    H15   2981 0.25637600   1.008000   ; qtot 0.155258
 2982         h1    102    bbb    H16   2982 0.25637600   1.008000   ; qtot 0.411634
 2983         c3    102    bbb     C9   2983 -0.72423400  12.010000   ; qtot -0.312600
 2984         h1    102    bbb    H17   2984 0.25637600   1.008000   ; qtot -0.056224
 2985         h1    102    bbb    H18   2985 0.25637600   1.008000   ; qtot 0.200152
 2986         os    102    bbb     O1   2986 -0.20025300  16.000000   ; qtot -0.000101
; residue  103 bbb rtp bbb q -0.0
 2987         n3    103    bbb     N1   2987 -0.59685800  14.010000   ; qtot -0.596959
 2988         c3    103    bbb     C1   2988 0.10137000  12.010000   ; qtot -0.495589
 2989         h1    103    bbb     H1   2989 0.04411300   1.008000   ; qtot -0.451476
 2990         h1    103    bbb     H2   2990 0.04411300   1.008000   ; qtot -0.407363
 2991         c3    103    bbb     C2   2991 0.10137000  12.010000   ; qtot -0.305993
 2992         h1    103    bbb     H3   2992 0.04411300   1.008000   ; qtot -0.261880
 2993         h1    103    bbb     H4   2993 0.04411300   1.008000   ; qtot -0.217767
 2994         c3    103    bbb     C3   2994 -0.00195300  12.010000   ; qtot -0.219720
 2995         h1    103    bbb     H5   2995 0.05064400   1.008000   ; qtot -0.169076
 2996         h1    103    bbb     H6   2996 0.05064400   1.008000   ; qtot -0.118432
 2997         c3    103    bbb     C4   2997 -0.01612100  12.010000   ; qtot -0.134553
 2998         hc    103    bbb     H7   2998 0.04936100   1.008000   ; qtot -0.085192
 2999         hc    103    bbb     H8   2999 0.04936100   1.008000   ; qtot -0.035831
 3000         c3    103    bbb     C5   3000 0.11363000  12.010000   ; qtot 0.077799
 3001         hc    103    bbb     H9   3001 0.06265900   1.008000   ; qtot 0.140458
 3002         hc    103    bbb    H10   3002 0.06265900   1.008000   ; qtot 0.203117
 3003         c3    103    bbb     C6   3003 0.11363000  12.010000   ; qtot 0.316747
 3004         hc    103    bbb    H11   3004 0.06265900   1.008000   ; qtot 0.379406
 3005         hc    103    bbb    H12   3005 0.06265900   1.008000   ; qtot 0.442065
 3006         c3    103    bbb     C7   3006 0.05858200  12.010000   ; qtot 0.500647
 3007         h1    103    bbb    H13   3007 0.06123400   1.008000   ; qtot 0.561881
 3008         h1    103    bbb    H14   3008 0.06123400   1.008000   ; qtot 0.623115
 3009         c3    103    bbb     C8   3009 -0.72423400  12.010000   ; qtot -0.101119
 3010         h1    103    bbb    H15   3010 0.25637600   1.008000   ; qtot 0.155257
 3011         h1    103    bbb    H16   3011 0.25637600   1.008000   ; qtot 0.411633
 3012         c3    103    bbb     C9   3012 -0.72423400  12.010000   ; qtot -0.312601
 3013         h1    103    bbb    H17   3013 0.25637600   1.008000   ; qtot -0.056225
 3014         h1    103    bbb    H18   3014 0.25637600   1.008000   ; qtot 0.200151
 3015         os    103    bbb     O1   3015 -0.20025300  16.000000   ; qtot -0.000102
; residue  104 bbb rtp bbb q -0.0
 3016         n3    104    bbb     N1   3016 -0.59685800  14.010000   ; qtot -0.596960
 3017         c3    104    bbb     C1   3017 0.10137000  12.010000   ; qtot -0.495590
 3018         h1    104    bbb     H1   3018 0.04411300   1.008000   ; qtot -0.451477
 3019         h1    104    bbb     H2   3019 0.04411300   1.008000   ; qtot -0.407364
 3020         c3    104    bbb     C2   3020 0.10137000  12.010000   ; qtot -0.305994
 3021         h1    104    bbb     H3   3021 0.04411300   1.008000   ; qtot -0.261881
 3022         h1    104    bbb     H4   3022 0.04411300   1.008000   ; qtot -0.217768
 3023         c3    104    bbb     C3   3023 -0.00195300  12.010000   ; qtot -0.219721
 3024         h1    104    bbb     H5   3024 0.05064400   1.008000   ; qtot -0.169077
 3025         h1    104    bbb     H6   3025 0.05064400   1.008000   ; qtot -0.118433
 3026         c3    104    bbb     C4   3026 -0.01612100  12.010000   ; qtot -0.134554
 3027         hc    104    bbb     H7   3027 0.04936100   1.008000   ; qtot -0.085193
 3028         hc    104    bbb     H8   3028 0.04936100   1.008000   ; qtot -0.035832
 3029         c3    104    bbb     C5   3029 0.11363000  12.010000   ; qtot 0.077798
 3030         hc    104    bbb     H9   3030 0.06265900   1.008000   ; qtot 0.140457
 3031         hc    104    bbb    H10   3031 0.06265900   1.008000   ; qtot 0.203116
 3032         c3    104    bbb     C6   3032 0.11363000  12.010000   ; qtot 0.316746
 3033         hc    104    bbb    H11   3033 0.06265900   1.008000   ; qtot 0.379405
 3034         hc    104    bbb    H12   3034 0.06265900   1.008000   ; qtot 0.442064
 3035         c3    104    bbb     C7   3035 0.05858200  12.010000   ; qtot 0.500646
 3036         h1    104    bbb    H13   3036 0.06123400   1.008000   ; qtot 0.561880
 3037         h1    104    bbb    H14   3037 0.06123400   1.008000   ; qtot 0.623114
 3038         c3    104    bbb     C8   3038 -0.72423400  12.010000   ; qtot -0.101120
 3039         h1    104    bbb    H15   3039 0.25637600   1.008000   ; qtot 0.155256
 3040         h1    104    bbb    H16   3040 0.25637600   1.008000   ; qtot 0.411632
 3041         c3    104    bbb     C9   3041 -0.72423400  12.010000   ; qtot -0.312602
 3042         h1    104    bbb    H17   3042 0.25637600   1.008000   ; qtot -0.056226
 3043         h1    104    bbb    H18   3043 0.25637600   1.008000   ; qtot 0.200150
 3044         os    104    bbb     O1   3044 -0.20025300  16.000000   ; qtot -0.000103
; residue  105 bbb rtp bbb q -0.0
 3045         n3    105    bbb     N1   3045 -0.59685800  14.010000   ; qtot -0.596961
 3046         c3    105    bbb     C1   3046 0.10137000  12.010000   ; qtot -0.495591
 3047         h1    105    bbb     H1   3047 0.04411300   1.008000   ; qtot -0.451478
 3048         h1    105    bbb     H2   3048 0.04411300   1.008000   ; qtot -0.407365
 3049         c3    105    bbb     C2   3049 0.10137000  12.010000   ; qtot -0.305995
 3050         h1    105    bbb     H3   3050 0.04411300   1.008000   ; qtot -0.261882
 3051         h1    105    bbb     H4   3051 0.04411300   1.008000   ; qtot -0.217769
 3052         c3    105    bbb     C3   3052 -0.00195300  12.010000   ; qtot -0.219722
 3053         h1    105    bbb     H5   3053 0.05064400   1.008000   ; qtot -0.169078
 3054         h1    105    bbb     H6   3054 0.05064400   1.008000   ; qtot -0.118434
 3055         c3    105    bbb     C4   3055 -0.01612100  12.010000   ; qtot -0.134555
 3056         hc    105    bbb     H7   3056 0.04936100   1.008000   ; qtot -0.085194
 3057         hc    105    bbb     H8   3057 0.04936100   1.008000   ; qtot -0.035833
 3058         c3    105    bbb     C5   3058 0.11363000  12.010000   ; qtot 0.077797
 3059         hc    105    bbb     H9   3059 0.06265900   1.008000   ; qtot 0.140456
 3060         hc    105    bbb    H10   3060 0.06265900   1.008000   ; qtot 0.203115
 3061         c3    105    bbb     C6   3061 0.11363000  12.010000   ; qtot 0.316745
 3062         hc    105    bbb    H11   3062 0.06265900   1.008000   ; qtot 0.379404
 3063         hc    105    bbb    H12   3063 0.06265900   1.008000   ; qtot 0.442063
 3064         c3    105    bbb     C7   3064 0.05858200  12.010000   ; qtot 0.500645
 3065         h1    105    bbb    H13   3065 0.06123400   1.008000   ; qtot 0.561879
 3066         h1    105    bbb    H14   3066 0.06123400   1.008000   ; qtot 0.623113
 3067         c3    105    bbb     C8   3067 -0.72423400  12.010000   ; qtot -0.101121
 3068         h1    105    bbb    H15   3068 0.25637600   1.008000   ; qtot 0.155255
 3069         h1    105    bbb    H16   3069 0.25637600   1.008000   ; qtot 0.411631
 3070         c3    105    bbb     C9   3070 -0.72423400  12.010000   ; qtot -0.312603
 3071         h1    105    bbb    H17   3071 0.25637600   1.008000   ; qtot -0.056227
 3072         h1    105    bbb    H18   3072 0.25637600   1.008000   ; qtot 0.200149
 3073         os    105    bbb     O1   3073 -0.20025300  16.000000   ; qtot -0.000104
; residue  106 bbb rtp bbb q -0.0
 3074         n3    106    bbb     N1   3074 -0.59685800  14.010000   ; qtot -0.596962
 3075         c3    106    bbb     C1   3075 0.10137000  12.010000   ; qtot -0.495592
 3076         h1    106    bbb     H1   3076 0.04411300   1.008000   ; qtot -0.451479
 3077         h1    106    bbb     H2   3077 0.04411300   1.008000   ; qtot -0.407366
 3078         c3    106    bbb     C2   3078 0.10137000  12.010000   ; qtot -0.305996
 3079         h1    106    bbb     H3   3079 0.04411300   1.008000   ; qtot -0.261883
 3080         h1    106    bbb     H4   3080 0.04411300   1.008000   ; qtot -0.217770
 3081         c3    106    bbb     C3   3081 -0.00195300  12.010000   ; qtot -0.219723
 3082         h1    106    bbb     H5   3082 0.05064400   1.008000   ; qtot -0.169079
 3083         h1    106    bbb     H6   3083 0.05064400   1.008000   ; qtot -0.118435
 3084         c3    106    bbb     C4   3084 -0.01612100  12.010000   ; qtot -0.134556
 3085         hc    106    bbb     H7   3085 0.04936100   1.008000   ; qtot -0.085195
 3086         hc    106    bbb     H8   3086 0.04936100   1.008000   ; qtot -0.035834
 3087         c3    106    bbb     C5   3087 0.11363000  12.010000   ; qtot 0.077796
 3088         hc    106    bbb     H9   3088 0.06265900   1.008000   ; qtot 0.140455
 3089         hc    106    bbb    H10   3089 0.06265900   1.008000   ; qtot 0.203114
 3090         c3    106    bbb     C6   3090 0.11363000  12.010000   ; qtot 0.316744
 3091         hc    106    bbb    H11   3091 0.06265900   1.008000   ; qtot 0.379403
 3092         hc    106    bbb    H12   3092 0.06265900   1.008000   ; qtot 0.442062
 3093         c3    106    bbb     C7   3093 0.05858200  12.010000   ; qtot 0.500644
 3094         h1    106    bbb    H13   3094 0.06123400   1.008000   ; qtot 0.561878
 3095         h1    106    bbb    H14   3095 0.06123400   1.008000   ; qtot 0.623112
 3096         c3    106    bbb     C8   3096 -0.72423400  12.010000   ; qtot -0.101122
 3097         h1    106    bbb    H15   3097 0.25637600   1.008000   ; qtot 0.155254
 3098         h1    106    bbb    H16   3098 0.25637600   1.008000   ; qtot 0.411630
 3099         c3    106    bbb     C9   3099 -0.72423400  12.010000   ; qtot -0.312604
 3100         h1    106    bbb    H17   3100 0.25637600   1.008000   ; qtot -0.056228
 3101         h1    106    bbb    H18   3101 0.25637600   1.008000   ; qtot 0.200148
 3102         os    106    bbb     O1   3102 -0.20025300  16.000000   ; qtot -0.000105
; residue  107 bbb rtp bbb q -0.0
 3103         n3    107    bbb     N1   3103 -0.59685800  14.010000   ; qtot -0.596963
 3104         c3    107    bbb     C1   3104 0.10137000  12.010000   ; qtot -0.495593
 3105         h1    107    bbb     H1   3105 0.04411300   1.008000   ; qtot -0.451480
 3106         h1    107    bbb     H2   3106 0.04411300   1.008000   ; qtot -0.407367
 3107         c3    107    bbb     C2   3107 0.10137000  12.010000   ; qtot -0.305997
 3108         h1    107    bbb     H3   3108 0.04411300   1.008000   ; qtot -0.261884
 3109         h1    107    bbb     H4   3109 0.04411300   1.008000   ; qtot -0.217771
 3110         c3    107    bbb     C3   3110 -0.00195300  12.010000   ; qtot -0.219724
 3111         h1    107    bbb     H5   3111 0.05064400   1.008000   ; qtot -0.169080
 3112         h1    107    bbb     H6   3112 0.05064400   1.008000   ; qtot -0.118436
 3113         c3    107    bbb     C4   3113 -0.01612100  12.010000   ; qtot -0.134557
 3114         hc    107    bbb     H7   3114 0.04936100   1.008000   ; qtot -0.085196
 3115         hc    107    bbb     H8   3115 0.04936100   1.008000   ; qtot -0.035835
 3116         c3    107    bbb     C5   3116 0.11363000  12.010000   ; qtot 0.077795
 3117         hc    107    bbb     H9   3117 0.06265900   1.008000   ; qtot 0.140454
 3118         hc    107    bbb    H10   3118 0.06265900   1.008000   ; qtot 0.203113
 3119         c3    107    bbb     C6   3119 0.11363000  12.010000   ; qtot 0.316743
 3120         hc    107    bbb    H11   3120 0.06265900   1.008000   ; qtot 0.379402
 3121         hc    107    bbb    H12   3121 0.06265900   1.008000   ; qtot 0.442061
 3122         c3    107    bbb     C7   3122 0.05858200  12.010000   ; qtot 0.500643
 3123         h1    107    bbb    H13   3123 0.06123400   1.008000   ; qtot 0.561877
 3124         h1    107    bbb    H14   3124 0.06123400   1.008000   ; qtot 0.623111
 3125         c3    107    bbb     C8   3125 -0.72423400  12.010000   ; qtot -0.101123
 3126         h1    107    bbb    H15   3126 0.25637600   1.008000   ; qtot 0.155253
 3127         h1    107    bbb    H16   3127 0.25637600   1.008000   ; qtot 0.411629
 3128         c3    107    bbb     C9   3128 -0.72423400  12.010000   ; qtot -0.312605
 3129         h1    107    bbb    H17   3129 0.25637600   1.008000   ; qtot -0.056229
 3130         h1    107    bbb    H18   3130 0.25637600   1.008000   ; qtot 0.200147
 3131         os    107    bbb     O1   3131 -0.20025300  16.000000   ; qtot -0.000106
; residue  108 bbb rtp bbb q -0.0
 3132         n3    108    bbb     N1   3132 -0.59685800  14.010000   ; qtot -0.596964
 3133         c3    108    bbb     C1   3133 0.10137000  12.010000   ; qtot -0.495594
 3134         h1    108    bbb     H1   3134 0.04411300   1.008000   ; qtot -0.451481
 3135         h1    108    bbb     H2   3135 0.04411300   1.008000   ; qtot -0.407368
 3136         c3    108    bbb     C2   3136 0.10137000  12.010000   ; qtot -0.305998
 3137         h1    108    bbb     H3   3137 0.04411300   1.008000   ; qtot -0.261885
 3138         h1    108    bbb     H4   3138 0.04411300   1.008000   ; qtot -0.217772
 3139         c3    108    bbb     C3   3139 -0.00195300  12.010000   ; qtot -0.219725
 3140         h1    108    bbb     H5   3140 0.05064400   1.008000   ; qtot -0.169081
 3141         h1    108    bbb     H6   3141 0.05064400   1.008000   ; qtot -0.118437
 3142         c3    108    bbb     C4   3142 -0.01612100  12.010000   ; qtot -0.134558
 3143         hc    108    bbb     H7   3143 0.04936100   1.008000   ; qtot -0.085197
 3144         hc    108    bbb     H8   3144 0.04936100   1.008000   ; qtot -0.035836
 3145         c3    108    bbb     C5   3145 0.11363000  12.010000   ; qtot 0.077794
 3146         hc    108    bbb     H9   3146 0.06265900   1.008000   ; qtot 0.140453
 3147         hc    108    bbb    H10   3147 0.06265900   1.008000   ; qtot 0.203112
 3148         c3    108    bbb     C6   3148 0.11363000  12.010000   ; qtot 0.316742
 3149         hc    108    bbb    H11   3149 0.06265900   1.008000   ; qtot 0.379401
 3150         hc    108    bbb    H12   3150 0.06265900   1.008000   ; qtot 0.442060
 3151         c3    108    bbb     C7   3151 0.05858200  12.010000   ; qtot 0.500642
 3152         h1    108    bbb    H13   3152 0.06123400   1.008000   ; qtot 0.561876
 3153         h1    108    bbb    H14   3153 0.06123400   1.008000   ; qtot 0.623110
 3154         c3    108    bbb     C8   3154 -0.72423400  12.010000   ; qtot -0.101124
 3155         h1    108    bbb    H15   3155 0.25637600   1.008000   ; qtot 0.155252
 3156         h1    108    bbb    H16   3156 0.25637600   1.008000   ; qtot 0.411628
 3157         c3    108    bbb     C9   3157 -0.72423400  12.010000   ; qtot -0.312606
 3158         h1    108    bbb    H17   3158 0.25637600   1.008000   ; qtot -0.056230
 3159         h1    108    bbb    H18   3159 0.25637600   1.008000   ; qtot 0.200146
 3160         os    108    bbb     O1   3160 -0.20025300  16.000000   ; qtot -0.000107
; residue  109 bbb rtp bbb q -0.0
 3161         n3    109    bbb     N1   3161 -0.59685800  14.010000   ; qtot -0.596965
 3162         c3    109    bbb     C1   3162 0.10137000  12.010000   ; qtot -0.495595
 3163         h1    109    bbb     H1   3163 0.04411300   1.008000   ; qtot -0.451482
 3164         h1    109    bbb     H2   3164 0.04411300   1.008000   ; qtot -0.407369
 3165         c3    109    bbb     C2   3165 0.10137000  12.010000   ; qtot -0.305999
 3166         h1    109    bbb     H3   3166 0.04411300   1.008000   ; qtot -0.261886
 3167         h1    109    bbb     H4   3167 0.04411300   1.008000   ; qtot -0.217773
 3168         c3    109    bbb     C3   3168 -0.00195300  12.010000   ; qtot -0.219726
 3169         h1    109    bbb     H5   3169 0.05064400   1.008000   ; qtot -0.169082
 3170         h1    109    bbb     H6   3170 0.05064400   1.008000   ; qtot -0.118438
 3171         c3    109    bbb     C4   3171 -0.01612100  12.010000   ; qtot -0.134559
 3172         hc    109    bbb     H7   3172 0.04936100   1.008000   ; qtot -0.085198
 3173         hc    109    bbb     H8   3173 0.04936100   1.008000   ; qtot -0.035837
 3174         c3    109    bbb     C5   3174 0.11363000  12.010000   ; qtot 0.077793
 3175         hc    109    bbb     H9   3175 0.06265900   1.008000   ; qtot 0.140452
 3176         hc    109    bbb    H10   3176 0.06265900   1.008000   ; qtot 0.203111
 3177         c3    109    bbb     C6   3177 0.11363000  12.010000   ; qtot 0.316741
 3178         hc    109    bbb    H11   3178 0.06265900   1.008000   ; qtot 0.379400
 3179         hc    109    bbb    H12   3179 0.06265900   1.008000   ; qtot 0.442059
 3180         c3    109    bbb     C7   3180 0.05858200  12.010000   ; qtot 0.500641
 3181         h1    109    bbb    H13   3181 0.06123400   1.008000   ; qtot 0.561875
 3182         h1    109    bbb    H14   3182 0.06123400   1.008000   ; qtot 0.623109
 3183         c3    109    bbb     C8   3183 -0.72423400  12.010000   ; qtot -0.101125
 3184         h1    109    bbb    H15   3184 0.25637600   1.008000   ; qtot 0.155251
 3185         h1    109    bbb    H16   3185 0.25637600   1.008000   ; qtot 0.411627
 3186         c3    109    bbb     C9   3186 -0.72423400  12.010000   ; qtot -0.312607
 3187         h1    109    bbb    H17   3187 0.25637600   1.008000   ; qtot -0.056231
 3188         h1    109    bbb    H18   3188 0.25637600   1.008000   ; qtot 0.200145
 3189         os    109    bbb     O1   3189 -0.20025300  16.000000   ; qtot -0.000108
; residue  110 bbb rtp bbb q -0.0
 3190         n3    110    bbb     N1   3190 -0.59685800  14.010000   ; qtot -0.596966
 3191         c3    110    bbb     C1   3191 0.10137000  12.010000   ; qtot -0.495596
 3192         h1    110    bbb     H1   3192 0.04411300   1.008000   ; qtot -0.451483
 3193         h1    110    bbb     H2   3193 0.04411300   1.008000   ; qtot -0.407370
 3194         c3    110    bbb     C2   3194 0.10137000  12.010000   ; qtot -0.306000
 3195         h1    110    bbb     H3   3195 0.04411300   1.008000   ; qtot -0.261887
 3196         h1    110    bbb     H4   3196 0.04411300   1.008000   ; qtot -0.217774
 3197         c3    110    bbb     C3   3197 -0.00195300  12.010000   ; qtot -0.219727
 3198         h1    110    bbb     H5   3198 0.05064400   1.008000   ; qtot -0.169083
 3199         h1    110    bbb     H6   3199 0.05064400   1.008000   ; qtot -0.118439
 3200         c3    110    bbb     C4   3200 -0.01612100  12.010000   ; qtot -0.134560
 3201         hc    110    bbb     H7   3201 0.04936100   1.008000   ; qtot -0.085199
 3202         hc    110    bbb     H8   3202 0.04936100   1.008000   ; qtot -0.035838
 3203         c3    110    bbb     C5   3203 0.11363000  12.010000   ; qtot 0.077792
 3204         hc    110    bbb     H9   3204 0.06265900   1.008000   ; qtot 0.140451
 3205         hc    110    bbb    H10   3205 0.06265900   1.008000   ; qtot 0.203110
 3206         c3    110    bbb     C6   3206 0.11363000  12.010000   ; qtot 0.316740
 3207         hc    110    bbb    H11   3207 0.06265900   1.008000   ; qtot 0.379399
 3208         hc    110    bbb    H12   3208 0.06265900   1.008000   ; qtot 0.442058
 3209         c3    110    bbb     C7   3209 0.05858200  12.010000   ; qtot 0.500640
 3210         h1    110    bbb    H13   3210 0.06123400   1.008000   ; qtot 0.561874
 3211         h1    110    bbb    H14   3211 0.06123400   1.008000   ; qtot 0.623108
 3212         c3    110    bbb     C8   3212 -0.72423400  12.010000   ; qtot -0.101126
 3213         h1    110    bbb    H15   3213 0.25637600   1.008000   ; qtot 0.155250
 3214         h1    110    bbb    H16   3214 0.25637600   1.008000   ; qtot 0.411626
 3215         c3    110    bbb     C9   3215 -0.72423400  12.010000   ; qtot -0.312608
 3216         h1    110    bbb    H17   3216 0.25637600   1.008000   ; qtot -0.056232
 3217         h1    110    bbb    H18   3217 0.25637600   1.008000   ; qtot 0.200144
 3218         os    110    bbb     O1   3218 -0.20025300  16.000000   ; qtot -0.000109
; residue  111 bbb rtp bbb q -0.0
 3219         n3    111    bbb     N1   3219 -0.59685800  14.010000   ; qtot -0.596967
 3220         c3    111    bbb     C1   3220 0.10137000  12.010000   ; qtot -0.495597
 3221         h1    111    bbb     H1   3221 0.04411300   1.008000   ; qtot -0.451484
 3222         h1    111    bbb     H2   3222 0.04411300   1.008000   ; qtot -0.407371
 3223         c3    111    bbb     C2   3223 0.10137000  12.010000   ; qtot -0.306001
 3224         h1    111    bbb     H3   3224 0.04411300   1.008000   ; qtot -0.261888
 3225         h1    111    bbb     H4   3225 0.04411300   1.008000   ; qtot -0.217775
 3226         c3    111    bbb     C3   3226 -0.00195300  12.010000   ; qtot -0.219728
 3227         h1    111    bbb     H5   3227 0.05064400   1.008000   ; qtot -0.169084
 3228         h1    111    bbb     H6   3228 0.05064400   1.008000   ; qtot -0.118440
 3229         c3    111    bbb     C4   3229 -0.01612100  12.010000   ; qtot -0.134561
 3230         hc    111    bbb     H7   3230 0.04936100   1.008000   ; qtot -0.085200
 3231         hc    111    bbb     H8   3231 0.04936100   1.008000   ; qtot -0.035839
 3232         c3    111    bbb     C5   3232 0.11363000  12.010000   ; qtot 0.077791
 3233         hc    111    bbb     H9   3233 0.06265900   1.008000   ; qtot 0.140450
 3234         hc    111    bbb    H10   3234 0.06265900   1.008000   ; qtot 0.203109
 3235         c3    111    bbb     C6   3235 0.11363000  12.010000   ; qtot 0.316739
 3236         hc    111    bbb    H11   3236 0.06265900   1.008000   ; qtot 0.379398
 3237         hc    111    bbb    H12   3237 0.06265900   1.008000   ; qtot 0.442057
 3238         c3    111    bbb     C7   3238 0.05858200  12.010000   ; qtot 0.500639
 3239         h1    111    bbb    H13   3239 0.06123400   1.008000   ; qtot 0.561873
 3240         h1    111    bbb    H14   3240 0.06123400   1.008000   ; qtot 0.623107
 3241         c3    111    bbb     C8   3241 -0.72423400  12.010000   ; qtot -0.101127
 3242         h1    111    bbb    H15   3242 0.25637600   1.008000   ; qtot 0.155249
 3243         h1    111    bbb    H16   3243 0.25637600   1.008000   ; qtot 0.411625
 3244         c3    111    bbb     C9   3244 -0.72423400  12.010000   ; qtot -0.312609
 3245         h1    111    bbb    H17   3245 0.25637600   1.008000   ; qtot -0.056233
 3246         h1    111    bbb    H18   3246 0.25637600   1.008000   ; qtot 0.200143
 3247         os    111    bbb     O1   3247 -0.20025300  16.000000   ; qtot -0.000110
; residue  112 bbb rtp bbb q -0.0
 3248         n3    112    bbb     N1   3248 -0.59685800  14.010000   ; qtot -0.596968
 3249         c3    112    bbb     C1   3249 0.10137000  12.010000   ; qtot -0.495598
 3250         h1    112    bbb     H1   3250 0.04411300   1.008000   ; qtot -0.451485
 3251         h1    112    bbb     H2   3251 0.04411300   1.008000   ; qtot -0.407372
 3252         c3    112    bbb     C2   3252 0.10137000  12.010000   ; qtot -0.306002
 3253         h1    112    bbb     H3   3253 0.04411300   1.008000   ; qtot -0.261889
 3254         h1    112    bbb     H4   3254 0.04411300   1.008000   ; qtot -0.217776
 3255         c3    112    bbb     C3   3255 -0.00195300  12.010000   ; qtot -0.219729
 3256         h1    112    bbb     H5   3256 0.05064400   1.008000   ; qtot -0.169085
 3257         h1    112    bbb     H6   3257 0.05064400   1.008000   ; qtot -0.118441
 3258         c3    112    bbb     C4   3258 -0.01612100  12.010000   ; qtot -0.134562
 3259         hc    112    bbb     H7   3259 0.04936100   1.008000   ; qtot -0.085201
 3260         hc    112    bbb     H8   3260 0.04936100   1.008000   ; qtot -0.035840
 3261         c3    112    bbb     C5   3261 0.11363000  12.010000   ; qtot 0.077790
 3262         hc    112    bbb     H9   3262 0.06265900   1.008000   ; qtot 0.140449
 3263         hc    112    bbb    H10   3263 0.06265900   1.008000   ; qtot 0.203108
 3264         c3    112    bbb     C6   3264 0.11363000  12.010000   ; qtot 0.316738
 3265         hc    112    bbb    H11   3265 0.06265900   1.008000   ; qtot 0.379397
 3266         hc    112    bbb    H12   3266 0.06265900   1.008000   ; qtot 0.442056
 3267         c3    112    bbb     C7   3267 0.05858200  12.010000   ; qtot 0.500638
 3268         h1    112    bbb    H13   3268 0.06123400   1.008000   ; qtot 0.561872
 3269         h1    112    bbb    H14   3269 0.06123400   1.008000   ; qtot 0.623106
 3270         c3    112    bbb     C8   3270 -0.72423400  12.010000   ; qtot -0.101128
 3271         h1    112    bbb    H15   3271 0.25637600   1.008000   ; qtot 0.155248
 3272         h1    112    bbb    H16   3272 0.25637600   1.008000   ; qtot 0.411624
 3273         c3    112    bbb     C9   3273 -0.72423400  12.010000   ; qtot -0.312610
 3274         h1    112    bbb    H17   3274 0.25637600   1.008000   ; qtot -0.056234
 3275         h1    112    bbb    H18   3275 0.25637600   1.008000   ; qtot 0.200142
 3276         os    112    bbb     O1   3276 -0.20025300  16.000000   ; qtot -0.000111
; residue  113 bbb rtp bbb q -0.0
 3277         n3    113    bbb     N1   3277 -0.59685800  14.010000   ; qtot -0.596969
 3278         c3    113    bbb     C1   3278 0.10137000  12.010000   ; qtot -0.495599
 3279         h1    113    bbb     H1   3279 0.04411300   1.008000   ; qtot -0.451486
 3280         h1    113    bbb     H2   3280 0.04411300   1.008000   ; qtot -0.407373
 3281         c3    113    bbb     C2   3281 0.10137000  12.010000   ; qtot -0.306003
 3282         h1    113    bbb     H3   3282 0.04411300   1.008000   ; qtot -0.261890
 3283         h1    113    bbb     H4   3283 0.04411300   1.008000   ; qtot -0.217777
 3284         c3    113    bbb     C3   3284 -0.00195300  12.010000   ; qtot -0.219730
 3285         h1    113    bbb     H5   3285 0.05064400   1.008000   ; qtot -0.169086
 3286         h1    113    bbb     H6   3286 0.05064400   1.008000   ; qtot -0.118442
 3287         c3    113    bbb     C4   3287 -0.01612100  12.010000   ; qtot -0.134563
 3288         hc    113    bbb     H7   3288 0.04936100   1.008000   ; qtot -0.085202
 3289         hc    113    bbb     H8   3289 0.04936100   1.008000   ; qtot -0.035841
 3290         c3    113    bbb     C5   3290 0.11363000  12.010000   ; qtot 0.077789
 3291         hc    113    bbb     H9   3291 0.06265900   1.008000   ; qtot 0.140448
 3292         hc    113    bbb    H10   3292 0.06265900   1.008000   ; qtot 0.203107
 3293         c3    113    bbb     C6   3293 0.11363000  12.010000   ; qtot 0.316737
 3294         hc    113    bbb    H11   3294 0.06265900   1.008000   ; qtot 0.379396
 3295         hc    113    bbb    H12   3295 0.06265900   1.008000   ; qtot 0.442055
 3296         c3    113    bbb     C7   3296 0.05858200  12.010000   ; qtot 0.500637
 3297         h1    113    bbb    H13   3297 0.06123400   1.008000   ; qtot 0.561871
 3298         h1    113    bbb    H14   3298 0.06123400   1.008000   ; qtot 0.623105
 3299         c3    113    bbb     C8   3299 -0.72423400  12.010000   ; qtot -0.101129
 3300         h1    113    bbb    H15   3300 0.25637600   1.008000   ; qtot 0.155247
 3301         h1    113    bbb    H16   3301 0.25637600   1.008000   ; qtot 0.411623
 3302         c3    113    bbb     C9   3302 -0.72423400  12.010000   ; qtot -0.312611
 3303         h1    113    bbb    H17   3303 0.25637600   1.008000   ; qtot -0.056235
 3304         h1    113    bbb    H18   3304 0.25637600   1.008000   ; qtot 0.200141
 3305         os    113    bbb     O1   3305 -0.20025300  16.000000   ; qtot -0.000112
; residue  114 bbb rtp bbb q -0.0
 3306         n3    114    bbb     N1   3306 -0.59685800  14.010000   ; qtot -0.596970
 3307         c3    114    bbb     C1   3307 0.10137000  12.010000   ; qtot -0.495600
 3308         h1    114    bbb     H1   3308 0.04411300   1.008000   ; qtot -0.451487
 3309         h1    114    bbb     H2   3309 0.04411300   1.008000   ; qtot -0.407374
 3310         c3    114    bbb     C2   3310 0.10137000  12.010000   ; qtot -0.306004
 3311         h1    114    bbb     H3   3311 0.04411300   1.008000   ; qtot -0.261891
 3312         h1    114    bbb     H4   3312 0.04411300   1.008000   ; qtot -0.217778
 3313         c3    114    bbb     C3   3313 -0.00195300  12.010000   ; qtot -0.219731
 3314         h1    114    bbb     H5   3314 0.05064400   1.008000   ; qtot -0.169087
 3315         h1    114    bbb     H6   3315 0.05064400   1.008000   ; qtot -0.118443
 3316         c3    114    bbb     C4   3316 -0.01612100  12.010000   ; qtot -0.134564
 3317         hc    114    bbb     H7   3317 0.04936100   1.008000   ; qtot -0.085203
 3318         hc    114    bbb     H8   3318 0.04936100   1.008000   ; qtot -0.035842
 3319         c3    114    bbb     C5   3319 0.11363000  12.010000   ; qtot 0.077788
 3320         hc    114    bbb     H9   3320 0.06265900   1.008000   ; qtot 0.140447
 3321         hc    114    bbb    H10   3321 0.06265900   1.008000   ; qtot 0.203106
 3322         c3    114    bbb     C6   3322 0.11363000  12.010000   ; qtot 0.316736
 3323         hc    114    bbb    H11   3323 0.06265900   1.008000   ; qtot 0.379395
 3324         hc    114    bbb    H12   3324 0.06265900   1.008000   ; qtot 0.442054
 3325         c3    114    bbb     C7   3325 0.05858200  12.010000   ; qtot 0.500636
 3326         h1    114    bbb    H13   3326 0.06123400   1.008000   ; qtot 0.561870
 3327         h1    114    bbb    H14   3327 0.06123400   1.008000   ; qtot 0.623104
 3328         c3    114    bbb     C8   3328 -0.72423400  12.010000   ; qtot -0.101130
 3329         h1    114    bbb    H15   3329 0.25637600   1.008000   ; qtot 0.155246
 3330         h1    114    bbb    H16   3330 0.25637600   1.008000   ; qtot 0.411622
 3331         c3    114    bbb     C9   3331 -0.72423400  12.010000   ; qtot -0.312612
 3332         h1    114    bbb    H17   3332 0.25637600   1.008000   ; qtot -0.056236
 3333         h1    114    bbb    H18   3333 0.25637600   1.008000   ; qtot 0.200140
 3334         os    114    bbb     O1   3334 -0.20025300  16.000000   ; qtot -0.000113
; residue  115 bbb rtp bbb q -0.0
 3335         n3    115    bbb     N1   3335 -0.59685800  14.010000   ; qtot -0.596971
 3336         c3    115    bbb     C1   3336 0.10137000  12.010000   ; qtot -0.495601
 3337         h1    115    bbb     H1   3337 0.04411300   1.008000   ; qtot -0.451488
 3338         h1    115    bbb     H2   3338 0.04411300   1.008000   ; qtot -0.407375
 3339         c3    115    bbb     C2   3339 0.10137000  12.010000   ; qtot -0.306005
 3340         h1    115    bbb     H3   3340 0.04411300   1.008000   ; qtot -0.261892
 3341         h1    115    bbb     H4   3341 0.04411300   1.008000   ; qtot -0.217779
 3342         c3    115    bbb     C3   3342 -0.00195300  12.010000   ; qtot -0.219732
 3343         h1    115    bbb     H5   3343 0.05064400   1.008000   ; qtot -0.169088
 3344         h1    115    bbb     H6   3344 0.05064400   1.008000   ; qtot -0.118444
 3345         c3    115    bbb     C4   3345 -0.01612100  12.010000   ; qtot -0.134565
 3346         hc    115    bbb     H7   3346 0.04936100   1.008000   ; qtot -0.085204
 3347         hc    115    bbb     H8   3347 0.04936100   1.008000   ; qtot -0.035843
 3348         c3    115    bbb     C5   3348 0.11363000  12.010000   ; qtot 0.077787
 3349         hc    115    bbb     H9   3349 0.06265900   1.008000   ; qtot 0.140446
 3350         hc    115    bbb    H10   3350 0.06265900   1.008000   ; qtot 0.203105
 3351         c3    115    bbb     C6   3351 0.11363000  12.010000   ; qtot 0.316735
 3352         hc    115    bbb    H11   3352 0.06265900   1.008000   ; qtot 0.379394
 3353         hc    115    bbb    H12   3353 0.06265900   1.008000   ; qtot 0.442053
 3354         c3    115    bbb     C7   3354 0.05858200  12.010000   ; qtot 0.500635
 3355         h1    115    bbb    H13   3355 0.06123400   1.008000   ; qtot 0.561869
 3356         h1    115    bbb    H14   3356 0.06123400   1.008000   ; qtot 0.623103
 3357         c3    115    bbb     C8   3357 -0.72423400  12.010000   ; qtot -0.101131
 3358         h1    115    bbb    H15   3358 0.25637600   1.008000   ; qtot 0.155245
 3359         h1    115    bbb    H16   3359 0.25637600   1.008000   ; qtot 0.411621
 3360         c3    115    bbb     C9   3360 -0.72423400  12.010000   ; qtot -0.312613
 3361         h1    115    bbb    H17   3361 0.25637600   1.008000   ; qtot -0.056237
 3362         h1    115    bbb    H18   3362 0.25637600   1.008000   ; qtot 0.200139
 3363         os    115    bbb     O1   3363 -0.20025300  16.000000   ; qtot -0.000114
; residue  116 bbb rtp bbb q -0.0
 3364         n3    116    bbb     N1   3364 -0.59685800  14.010000   ; qtot -0.596972
 3365         c3    116    bbb     C1   3365 0.10137000  12.010000   ; qtot -0.495602
 3366         h1    116    bbb     H1   3366 0.04411300   1.008000   ; qtot -0.451489
 3367         h1    116    bbb     H2   3367 0.04411300   1.008000   ; qtot -0.407376
 3368         c3    116    bbb     C2   3368 0.10137000  12.010000   ; qtot -0.306006
 3369         h1    116    bbb     H3   3369 0.04411300   1.008000   ; qtot -0.261893
 3370         h1    116    bbb     H4   3370 0.04411300   1.008000   ; qtot -0.217780
 3371         c3    116    bbb     C3   3371 -0.00195300  12.010000   ; qtot -0.219733
 3372         h1    116    bbb     H5   3372 0.05064400   1.008000   ; qtot -0.169089
 3373         h1    116    bbb     H6   3373 0.05064400   1.008000   ; qtot -0.118445
 3374         c3    116    bbb     C4   3374 -0.01612100  12.010000   ; qtot -0.134566
 3375         hc    116    bbb     H7   3375 0.04936100   1.008000   ; qtot -0.085205
 3376         hc    116    bbb     H8   3376 0.04936100   1.008000   ; qtot -0.035844
 3377         c3    116    bbb     C5   3377 0.11363000  12.010000   ; qtot 0.077786
 3378         hc    116    bbb     H9   3378 0.06265900   1.008000   ; qtot 0.140445
 3379         hc    116    bbb    H10   3379 0.06265900   1.008000   ; qtot 0.203104
 3380         c3    116    bbb     C6   3380 0.11363000  12.010000   ; qtot 0.316734
 3381         hc    116    bbb    H11   3381 0.06265900   1.008000   ; qtot 0.379393
 3382         hc    116    bbb    H12   3382 0.06265900   1.008000   ; qtot 0.442052
 3383         c3    116    bbb     C7   3383 0.05858200  12.010000   ; qtot 0.500634
 3384         h1    116    bbb    H13   3384 0.06123400   1.008000   ; qtot 0.561868
 3385         h1    116    bbb    H14   3385 0.06123400   1.008000   ; qtot 0.623102
 3386         c3    116    bbb     C8   3386 -0.72423400  12.010000   ; qtot -0.101132
 3387         h1    116    bbb    H15   3387 0.25637600   1.008000   ; qtot 0.155244
 3388         h1    116    bbb    H16   3388 0.25637600   1.008000   ; qtot 0.411620
 3389         c3    116    bbb     C9   3389 -0.72423400  12.010000   ; qtot -0.312614
 3390         h1    116    bbb    H17   3390 0.25637600   1.008000   ; qtot -0.056238
 3391         h1    116    bbb    H18   3391 0.25637600   1.008000   ; qtot 0.200138
 3392         os    116    bbb     O1   3392 -0.20025300  16.000000   ; qtot -0.000115
; residue  117 bbb rtp bbb q -0.0
 3393         n3    117    bbb     N1   3393 -0.59685800  14.010000   ; qtot -0.596973
 3394         c3    117    bbb     C1   3394 0.10137000  12.010000   ; qtot -0.495603
 3395         h1    117    bbb     H1   3395 0.04411300   1.008000   ; qtot -0.451490
 3396         h1    117    bbb     H2   3396 0.04411300   1.008000   ; qtot -0.407377
 3397         c3    117    bbb     C2   3397 0.10137000  12.010000   ; qtot -0.306007
 3398         h1    117    bbb     H3   3398 0.04411300   1.008000   ; qtot -0.261894
 3399         h1    117    bbb     H4   3399 0.04411300   1.008000   ; qtot -0.217781
 3400         c3    117    bbb     C3   3400 -0.00195300  12.010000   ; qtot -0.219734
 3401         h1    117    bbb     H5   3401 0.05064400   1.008000   ; qtot -0.169090
 3402         h1    117    bbb     H6   3402 0.05064400   1.008000   ; qtot -0.118446
 3403         c3    117    bbb     C4   3403 -0.01612100  12.010000   ; qtot -0.134567
 3404         hc    117    bbb     H7   3404 0.04936100   1.008000   ; qtot -0.085206
 3405         hc    117    bbb     H8   3405 0.04936100   1.008000   ; qtot -0.035845
 3406         c3    117    bbb     C5   3406 0.11363000  12.010000   ; qtot 0.077785
 3407         hc    117    bbb     H9   3407 0.06265900   1.008000   ; qtot 0.140444
 3408         hc    117    bbb    H10   3408 0.06265900   1.008000   ; qtot 0.203103
 3409         c3    117    bbb     C6   3409 0.11363000  12.010000   ; qtot 0.316733
 3410         hc    117    bbb    H11   3410 0.06265900   1.008000   ; qtot 0.379392
 3411         hc    117    bbb    H12   3411 0.06265900   1.008000   ; qtot 0.442051
 3412         c3    117    bbb     C7   3412 0.05858200  12.010000   ; qtot 0.500633
 3413         h1    117    bbb    H13   3413 0.06123400   1.008000   ; qtot 0.561867
 3414         h1    117    bbb    H14   3414 0.06123400   1.008000   ; qtot 0.623101
 3415         c3    117    bbb     C8   3415 -0.72423400  12.010000   ; qtot -0.101133
 3416         h1    117    bbb    H15   3416 0.25637600   1.008000   ; qtot 0.155243
 3417         h1    117    bbb    H16   3417 0.25637600   1.008000   ; qtot 0.411619
 3418         c3    117    bbb     C9   3418 -0.72423400  12.010000   ; qtot -0.312615
 3419         h1    117    bbb    H17   3419 0.25637600   1.008000   ; qtot -0.056239
 3420         h1    117    bbb    H18   3420 0.25637600   1.008000   ; qtot 0.200137
 3421         os    117    bbb     O1   3421 -0.20025300  16.000000   ; qtot -0.000116
; residue  118 bbb rtp bbb q -0.0
 3422         n3    118    bbb     N1   3422 -0.59685800  14.010000   ; qtot -0.596974
 3423         c3    118    bbb     C1   3423 0.10137000  12.010000   ; qtot -0.495604
 3424         h1    118    bbb     H1   3424 0.04411300   1.008000   ; qtot -0.451491
 3425         h1    118    bbb     H2   3425 0.04411300   1.008000   ; qtot -0.407378
 3426         c3    118    bbb     C2   3426 0.10137000  12.010000   ; qtot -0.306008
 3427         h1    118    bbb     H3   3427 0.04411300   1.008000   ; qtot -0.261895
 3428         h1    118    bbb     H4   3428 0.04411300   1.008000   ; qtot -0.217782
 3429         c3    118    bbb     C3   3429 -0.00195300  12.010000   ; qtot -0.219735
 3430         h1    118    bbb     H5   3430 0.05064400   1.008000   ; qtot -0.169091
 3431         h1    118    bbb     H6   3431 0.05064400   1.008000   ; qtot -0.118447
 3432         c3    118    bbb     C4   3432 -0.01612100  12.010000   ; qtot -0.134568
 3433         hc    118    bbb     H7   3433 0.04936100   1.008000   ; qtot -0.085207
 3434         hc    118    bbb     H8   3434 0.04936100   1.008000   ; qtot -0.035846
 3435         c3    118    bbb     C5   3435 0.11363000  12.010000   ; qtot 0.077784
 3436         hc    118    bbb     H9   3436 0.06265900   1.008000   ; qtot 0.140443
 3437         hc    118    bbb    H10   3437 0.06265900   1.008000   ; qtot 0.203102
 3438         c3    118    bbb     C6   3438 0.11363000  12.010000   ; qtot 0.316732
 3439         hc    118    bbb    H11   3439 0.06265900   1.008000   ; qtot 0.379391
 3440         hc    118    bbb    H12   3440 0.06265900   1.008000   ; qtot 0.442050
 3441         c3    118    bbb     C7   3441 0.05858200  12.010000   ; qtot 0.500632
 3442         h1    118    bbb    H13   3442 0.06123400   1.008000   ; qtot 0.561866
 3443         h1    118    bbb    H14   3443 0.06123400   1.008000   ; qtot 0.623100
 3444         c3    118    bbb     C8   3444 -0.72423400  12.010000   ; qtot -0.101134
 3445         h1    118    bbb    H15   3445 0.25637600   1.008000   ; qtot 0.155242
 3446         h1    118    bbb    H16   3446 0.25637600   1.008000   ; qtot 0.411618
 3447         c3    118    bbb     C9   3447 -0.72423400  12.010000   ; qtot -0.312616
 3448         h1    118    bbb    H17   3448 0.25637600   1.008000   ; qtot -0.056240
 3449         h1    118    bbb    H18   3449 0.25637600   1.008000   ; qtot 0.200136
 3450         os    118    bbb     O1   3450 -0.20025300  16.000000   ; qtot -0.000117
; residue  119 bbb rtp bbb q -0.0
 3451         n3    119    bbb     N1   3451 -0.59685800  14.010000   ; qtot -0.596975
 3452         c3    119    bbb     C1   3452 0.10137000  12.010000   ; qtot -0.495605
 3453         h1    119    bbb     H1   3453 0.04411300   1.008000   ; qtot -0.451492
 3454         h1    119    bbb     H2   3454 0.04411300   1.008000   ; qtot -0.407379
 3455         c3    119    bbb     C2   3455 0.10137000  12.010000   ; qtot -0.306009
 3456         h1    119    bbb     H3   3456 0.04411300   1.008000   ; qtot -0.261896
 3457         h1    119    bbb     H4   3457 0.04411300   1.008000   ; qtot -0.217783
 3458         c3    119    bbb     C3   3458 -0.00195300  12.010000   ; qtot -0.219736
 3459         h1    119    bbb     H5   3459 0.05064400   1.008000   ; qtot -0.169092
 3460         h1    119    bbb     H6   3460 0.05064400   1.008000   ; qtot -0.118448
 3461         c3    119    bbb     C4   3461 -0.01612100  12.010000   ; qtot -0.134569
 3462         hc    119    bbb     H7   3462 0.04936100   1.008000   ; qtot -0.085208
 3463         hc    119    bbb     H8   3463 0.04936100   1.008000   ; qtot -0.035847
 3464         c3    119    bbb     C5   3464 0.11363000  12.010000   ; qtot 0.077783
 3465         hc    119    bbb     H9   3465 0.06265900   1.008000   ; qtot 0.140442
 3466         hc    119    bbb    H10   3466 0.06265900   1.008000   ; qtot 0.203101
 3467         c3    119    bbb     C6   3467 0.11363000  12.010000   ; qtot 0.316731
 3468         hc    119    bbb    H11   3468 0.06265900   1.008000   ; qtot 0.379390
 3469         hc    119    bbb    H12   3469 0.06265900   1.008000   ; qtot 0.442049
 3470         c3    119    bbb     C7   3470 0.05858200  12.010000   ; qtot 0.500631
 3471         h1    119    bbb    H13   3471 0.06123400   1.008000   ; qtot 0.561865
 3472         h1    119    bbb    H14   3472 0.06123400   1.008000   ; qtot 0.623099
 3473         c3    119    bbb     C8   3473 -0.72423400  12.010000   ; qtot -0.101135
 3474         h1    119    bbb    H15   3474 0.25637600   1.008000   ; qtot 0.155241
 3475         h1    119    bbb    H16   3475 0.25637600   1.008000   ; qtot 0.411617
 3476         c3    119    bbb     C9   3476 -0.72423400  12.010000   ; qtot -0.312617
 3477         h1    119    bbb    H17   3477 0.25637600   1.008000   ; qtot -0.056241
 3478         h1    119    bbb    H18   3478 0.25637600   1.008000   ; qtot 0.200135
 3479         os    119    bbb     O1   3479 -0.20025300  16.000000   ; qtot -0.000118
; residue  120 bbb rtp bbb q -0.0
 3480         n3    120    bbb     N1   3480 -0.59685800  14.010000   ; qtot -0.596976
 3481         c3    120    bbb     C1   3481 0.10137000  12.010000   ; qtot -0.495606
 3482         h1    120    bbb     H1   3482 0.04411300   1.008000   ; qtot -0.451493
 3483         h1    120    bbb     H2   3483 0.04411300   1.008000   ; qtot -0.407380
 3484         c3    120    bbb     C2   3484 0.10137000  12.010000   ; qtot -0.306010
 3485         h1    120    bbb     H3   3485 0.04411300   1.008000   ; qtot -0.261897
 3486         h1    120    bbb     H4   3486 0.04411300   1.008000   ; qtot -0.217784
 3487         c3    120    bbb     C3   3487 -0.00195300  12.010000   ; qtot -0.219737
 3488         h1    120    bbb     H5   3488 0.05064400   1.008000   ; qtot -0.169093
 3489         h1    120    bbb     H6   3489 0.05064400   1.008000   ; qtot -0.118449
 3490         c3    120    bbb     C4   3490 -0.01612100  12.010000   ; qtot -0.134570
 3491         hc    120    bbb     H7   3491 0.04936100   1.008000   ; qtot -0.085209
 3492         hc    120    bbb     H8   3492 0.04936100   1.008000   ; qtot -0.035848
 3493         c3    120    bbb     C5   3493 0.11363000  12.010000   ; qtot 0.077782
 3494         hc    120    bbb     H9   3494 0.06265900   1.008000   ; qtot 0.140441
 3495         hc    120    bbb    H10   3495 0.06265900   1.008000   ; qtot 0.203100
 3496         c3    120    bbb     C6   3496 0.11363000  12.010000   ; qtot 0.316730
 3497         hc    120    bbb    H11   3497 0.06265900   1.008000   ; qtot 0.379389
 3498         hc    120    bbb    H12   3498 0.06265900   1.008000   ; qtot 0.442048
 3499         c3    120    bbb     C7   3499 0.05858200  12.010000   ; qtot 0.500630
 3500         h1    120    bbb    H13   3500 0.06123400   1.008000   ; qtot 0.561864
 3501         h1    120    bbb    H14   3501 0.06123400   1.008000   ; qtot 0.623098
 3502         c3    120    bbb     C8   3502 -0.72423400  12.010000   ; qtot -0.101136
 3503         h1    120    bbb    H15   3503 0.25637600   1.008000   ; qtot 0.155240
 3504         h1    120    bbb    H16   3504 0.25637600   1.008000   ; qtot 0.411616
 3505         c3    120    bbb     C9   3505 -0.72423400  12.010000   ; qtot -0.312618
 3506         h1    120    bbb    H17   3506 0.25637600   1.008000   ; qtot -0.056242
 3507         h1    120    bbb    H18   3507 0.25637600   1.008000   ; qtot 0.200134
 3508         os    120    bbb     O1   3508 -0.20025300  16.000000   ; qtot -0.000119
; residue  121 bbb rtp bbb q -0.0
 3509         n3    121    bbb     N1   3509 -0.59685800  14.010000   ; qtot -0.596977
 3510         c3    121    bbb     C1   3510 0.10137000  12.010000   ; qtot -0.495607
 3511         h1    121    bbb     H1   3511 0.04411300   1.008000   ; qtot -0.451494
 3512         h1    121    bbb     H2   3512 0.04411300   1.008000   ; qtot -0.407381
 3513         c3    121    bbb     C2   3513 0.10137000  12.010000   ; qtot -0.306011
 3514         h1    121    bbb     H3   3514 0.04411300   1.008000   ; qtot -0.261898
 3515         h1    121    bbb     H4   3515 0.04411300   1.008000   ; qtot -0.217785
 3516         c3    121    bbb     C3   3516 -0.00195300  12.010000   ; qtot -0.219738
 3517         h1    121    bbb     H5   3517 0.05064400   1.008000   ; qtot -0.169094
 3518         h1    121    bbb     H6   3518 0.05064400   1.008000   ; qtot -0.118450
 3519         c3    121    bbb     C4   3519 -0.01612100  12.010000   ; qtot -0.134571
 3520         hc    121    bbb     H7   3520 0.04936100   1.008000   ; qtot -0.085210
 3521         hc    121    bbb     H8   3521 0.04936100   1.008000   ; qtot -0.035849
 3522         c3    121    bbb     C5   3522 0.11363000  12.010000   ; qtot 0.077781
 3523         hc    121    bbb     H9   3523 0.06265900   1.008000   ; qtot 0.140440
 3524         hc    121    bbb    H10   3524 0.06265900   1.008000   ; qtot 0.203099
 3525         c3    121    bbb     C6   3525 0.11363000  12.010000   ; qtot 0.316729
 3526         hc    121    bbb    H11   3526 0.06265900   1.008000   ; qtot 0.379388
 3527         hc    121    bbb    H12   3527 0.06265900   1.008000   ; qtot 0.442047
 3528         c3    121    bbb     C7   3528 0.05858200  12.010000   ; qtot 0.500629
 3529         h1    121    bbb    H13   3529 0.06123400   1.008000   ; qtot 0.561863
 3530         h1    121    bbb    H14   3530 0.06123400   1.008000   ; qtot 0.623097
 3531         c3    121    bbb     C8   3531 -0.72423400  12.010000   ; qtot -0.101137
 3532         h1    121    bbb    H15   3532 0.25637600   1.008000   ; qtot 0.155239
 3533         h1    121    bbb    H16   3533 0.25637600   1.008000   ; qtot 0.411615
 3534         c3    121    bbb     C9   3534 -0.72423400  12.010000   ; qtot -0.312619
 3535         h1    121    bbb    H17   3535 0.25637600   1.008000   ; qtot -0.056243
 3536         h1    121    bbb    H18   3536 0.25637600   1.008000   ; qtot 0.200133
 3537         os    121    bbb     O1   3537 -0.20025300  16.000000   ; qtot -0.000120
; residue  122 bbb rtp bbb q -0.0
 3538         n3    122    bbb     N1   3538 -0.59685800  14.010000   ; qtot -0.596978
 3539         c3    122    bbb     C1   3539 0.10137000  12.010000   ; qtot -0.495608
 3540         h1    122    bbb     H1   3540 0.04411300   1.008000   ; qtot -0.451495
 3541         h1    122    bbb     H2   3541 0.04411300   1.008000   ; qtot -0.407382
 3542         c3    122    bbb     C2   3542 0.10137000  12.010000   ; qtot -0.306012
 3543         h1    122    bbb     H3   3543 0.04411300   1.008000   ; qtot -0.261899
 3544         h1    122    bbb     H4   3544 0.04411300   1.008000   ; qtot -0.217786
 3545         c3    122    bbb     C3   3545 -0.00195300  12.010000   ; qtot -0.219739
 3546         h1    122    bbb     H5   3546 0.05064400   1.008000   ; qtot -0.169095
 3547         h1    122    bbb     H6   3547 0.05064400   1.008000   ; qtot -0.118451
 3548         c3    122    bbb     C4   3548 -0.01612100  12.010000   ; qtot -0.134572
 3549         hc    122    bbb     H7   3549 0.04936100   1.008000   ; qtot -0.085211
 3550         hc    122    bbb     H8   3550 0.04936100   1.008000   ; qtot -0.035850
 3551         c3    122    bbb     C5   3551 0.11363000  12.010000   ; qtot 0.077780
 3552         hc    122    bbb     H9   3552 0.06265900   1.008000   ; qtot 0.140439
 3553         hc    122    bbb    H10   3553 0.06265900   1.008000   ; qtot 0.203098
 3554         c3    122    bbb     C6   3554 0.11363000  12.010000   ; qtot 0.316728
 3555         hc    122    bbb    H11   3555 0.06265900   1.008000   ; qtot 0.379387
 3556         hc    122    bbb    H12   3556 0.06265900   1.008000   ; qtot 0.442046
 3557         c3    122    bbb     C7   3557 0.05858200  12.010000   ; qtot 0.500628
 3558         h1    122    bbb    H13   3558 0.06123400   1.008000   ; qtot 0.561862
 3559         h1    122    bbb    H14   3559 0.06123400   1.008000   ; qtot 0.623096
 3560         c3    122    bbb     C8   3560 -0.72423400  12.010000   ; qtot -0.101138
 3561         h1    122    bbb    H15   3561 0.25637600   1.008000   ; qtot 0.155238
 3562         h1    122    bbb    H16   3562 0.25637600   1.008000   ; qtot 0.411614
 3563         c3    122    bbb     C9   3563 -0.72423400  12.010000   ; qtot -0.312620
 3564         h1    122    bbb    H17   3564 0.25637600   1.008000   ; qtot -0.056244
 3565         h1    122    bbb    H18   3565 0.25637600   1.008000   ; qtot 0.200132
 3566         os    122    bbb     O1   3566 -0.20025300  16.000000   ; qtot -0.000121
; residue  123 bbb rtp bbb q -0.0
 3567         n3    123    bbb     N1   3567 -0.59685800  14.010000   ; qtot -0.596979
 3568         c3    123    bbb     C1   3568 0.10137000  12.010000   ; qtot -0.495609
 3569         h1    123    bbb     H1   3569 0.04411300   1.008000   ; qtot -0.451496
 3570         h1    123    bbb     H2   3570 0.04411300   1.008000   ; qtot -0.407383
 3571         c3    123    bbb     C2   3571 0.10137000  12.010000   ; qtot -0.306013
 3572         h1    123    bbb     H3   3572 0.04411300   1.008000   ; qtot -0.261900
 3573         h1    123    bbb     H4   3573 0.04411300   1.008000   ; qtot -0.217787
 3574         c3    123    bbb     C3   3574 -0.00195300  12.010000   ; qtot -0.219740
 3575         h1    123    bbb     H5   3575 0.05064400   1.008000   ; qtot -0.169096
 3576         h1    123    bbb     H6   3576 0.05064400   1.008000   ; qtot -0.118452
 3577         c3    123    bbb     C4   3577 -0.01612100  12.010000   ; qtot -0.134573
 3578         hc    123    bbb     H7   3578 0.04936100   1.008000   ; qtot -0.085212
 3579         hc    123    bbb     H8   3579 0.04936100   1.008000   ; qtot -0.035851
 3580         c3    123    bbb     C5   3580 0.11363000  12.010000   ; qtot 0.077779
 3581         hc    123    bbb     H9   3581 0.06265900   1.008000   ; qtot 0.140438
 3582         hc    123    bbb    H10   3582 0.06265900   1.008000   ; qtot 0.203097
 3583         c3    123    bbb     C6   3583 0.11363000  12.010000   ; qtot 0.316727
 3584         hc    123    bbb    H11   3584 0.06265900   1.008000   ; qtot 0.379386
 3585         hc    123    bbb    H12   3585 0.06265900   1.008000   ; qtot 0.442045
 3586         c3    123    bbb     C7   3586 0.05858200  12.010000   ; qtot 0.500627
 3587         h1    123    bbb    H13   3587 0.06123400   1.008000   ; qtot 0.561861
 3588         h1    123    bbb    H14   3588 0.06123400   1.008000   ; qtot 0.623095
 3589         c3    123    bbb     C8   3589 -0.72423400  12.010000   ; qtot -0.101139
 3590         h1    123    bbb    H15   3590 0.25637600   1.008000   ; qtot 0.155237
 3591         h1    123    bbb    H16   3591 0.25637600   1.008000   ; qtot 0.411613
 3592         c3    123    bbb     C9   3592 -0.72423400  12.010000   ; qtot -0.312621
 3593         h1    123    bbb    H17   3593 0.25637600   1.008000   ; qtot -0.056245
 3594         h1    123    bbb    H18   3594 0.25637600   1.008000   ; qtot 0.200131
 3595         os    123    bbb     O1   3595 -0.20025300  16.000000   ; qtot -0.000122
; residue  124 bbb rtp bbb q -0.0
 3596         n3    124    bbb     N1   3596 -0.59685800  14.010000   ; qtot -0.596980
 3597         c3    124    bbb     C1   3597 0.10137000  12.010000   ; qtot -0.495610
 3598         h1    124    bbb     H1   3598 0.04411300   1.008000   ; qtot -0.451497
 3599         h1    124    bbb     H2   3599 0.04411300   1.008000   ; qtot -0.407384
 3600         c3    124    bbb     C2   3600 0.10137000  12.010000   ; qtot -0.306014
 3601         h1    124    bbb     H3   3601 0.04411300   1.008000   ; qtot -0.261901
 3602         h1    124    bbb     H4   3602 0.04411300   1.008000   ; qtot -0.217788
 3603         c3    124    bbb     C3   3603 -0.00195300  12.010000   ; qtot -0.219741
 3604         h1    124    bbb     H5   3604 0.05064400   1.008000   ; qtot -0.169097
 3605         h1    124    bbb     H6   3605 0.05064400   1.008000   ; qtot -0.118453
 3606         c3    124    bbb     C4   3606 -0.01612100  12.010000   ; qtot -0.134574
 3607         hc    124    bbb     H7   3607 0.04936100   1.008000   ; qtot -0.085213
 3608         hc    124    bbb     H8   3608 0.04936100   1.008000   ; qtot -0.035852
 3609         c3    124    bbb     C5   3609 0.11363000  12.010000   ; qtot 0.077778
 3610         hc    124    bbb     H9   3610 0.06265900   1.008000   ; qtot 0.140437
 3611         hc    124    bbb    H10   3611 0.06265900   1.008000   ; qtot 0.203096
 3612         c3    124    bbb     C6   3612 0.11363000  12.010000   ; qtot 0.316726
 3613         hc    124    bbb    H11   3613 0.06265900   1.008000   ; qtot 0.379385
 3614         hc    124    bbb    H12   3614 0.06265900   1.008000   ; qtot 0.442044
 3615         c3    124    bbb     C7   3615 0.05858200  12.010000   ; qtot 0.500626
 3616         h1    124    bbb    H13   3616 0.06123400   1.008000   ; qtot 0.561860
 3617         h1    124    bbb    H14   3617 0.06123400   1.008000   ; qtot 0.623094
 3618         c3    124    bbb     C8   3618 -0.72423400  12.010000   ; qtot -0.101139
 3619         h1    124    bbb    H15   3619 0.25637600   1.008000   ; qtot 0.155237
 3620         h1    124    bbb    H16   3620 0.25637600   1.008000   ; qtot 0.411613
 3621         c3    124    bbb     C9   3621 -0.72423400  12.010000   ; qtot -0.312621
 3622         h1    124    bbb    H17   3622 0.25637600   1.008000   ; qtot -0.056245
 3623         h1    124    bbb    H18   3623 0.25637600   1.008000   ; qtot 0.200131
 3624         os    124    bbb     O1   3624 -0.20025300  16.000000   ; qtot -0.000122
; residue  125 bbb rtp bbb q -0.0
 3625         n3    125    bbb     N1   3625 -0.59685800  14.010000   ; qtot -0.596980
 3626         c3    125    bbb     C1   3626 0.10137000  12.010000   ; qtot -0.495610
 3627         h1    125    bbb     H1   3627 0.04411300   1.008000   ; qtot -0.451497
 3628         h1    125    bbb     H2   3628 0.04411300   1.008000   ; qtot -0.407384
 3629         c3    125    bbb     C2   3629 0.10137000  12.010000   ; qtot -0.306014
 3630         h1    125    bbb     H3   3630 0.04411300   1.008000   ; qtot -0.261901
 3631         h1    125    bbb     H4   3631 0.04411300   1.008000   ; qtot -0.217788
 3632         c3    125    bbb     C3   3632 -0.00195300  12.010000   ; qtot -0.219741
 3633         h1    125    bbb     H5   3633 0.05064400   1.008000   ; qtot -0.169097
 3634         h1    125    bbb     H6   3634 0.05064400   1.008000   ; qtot -0.118453
 3635         c3    125    bbb     C4   3635 -0.01612100  12.010000   ; qtot -0.134574
 3636         hc    125    bbb     H7   3636 0.04936100   1.008000   ; qtot -0.085213
 3637         hc    125    bbb     H8   3637 0.04936100   1.008000   ; qtot -0.035852
 3638         c3    125    bbb     C5   3638 0.11363000  12.010000   ; qtot 0.077778
 3639         hc    125    bbb     H9   3639 0.06265900   1.008000   ; qtot 0.140437
 3640         hc    125    bbb    H10   3640 0.06265900   1.008000   ; qtot 0.203096
 3641         c3    125    bbb     C6   3641 0.11363000  12.010000   ; qtot 0.316726
 3642         hc    125    bbb    H11   3642 0.06265900   1.008000   ; qtot 0.379385
 3643         hc    125    bbb    H12   3643 0.06265900   1.008000   ; qtot 0.442044
 3644         c3    125    bbb     C7   3644 0.05858200  12.010000   ; qtot 0.500626
 3645         h1    125    bbb    H13   3645 0.06123400   1.008000   ; qtot 0.561860
 3646         h1    125    bbb    H14   3646 0.06123400   1.008000   ; qtot 0.623094
 3647         c3    125    bbb     C8   3647 -0.72423400  12.010000   ; qtot -0.101140
 3648         h1    125    bbb    H15   3648 0.25637600   1.008000   ; qtot 0.155236
 3649         h1    125    bbb    H16   3649 0.25637600   1.008000   ; qtot 0.411612
 3650         c3    125    bbb     C9   3650 -0.72423400  12.010000   ; qtot -0.312622
 3651         h1    125    bbb    H17   3651 0.25637600   1.008000   ; qtot -0.056246
 3652         h1    125    bbb    H18   3652 0.25637600   1.008000   ; qtot 0.200130
 3653         os    125    bbb     O1   3653 -0.20025300  16.000000   ; qtot -0.000123
; residue  126 ccc rtp ccc q 0.0
 3654         c3    126    ccc     C1   3654 0.50749700  12.010000   ; qtot 0.507374
 3655         h1    126    ccc     H1   3655 -0.02808400   1.008000   ; qtot 0.479290
 3656         h1    126    ccc     H2   3656 -0.02808400   1.008000   ; qtot 0.451206
 3657         c3    126    ccc     C2   3657 -0.15486000  12.010000   ; qtot 0.296346
 3658         hc    126    ccc     H3   3658 0.10266400   1.008000   ; qtot 0.399010
 3659         hc    126    ccc     H4   3659 0.10266400   1.008000   ; qtot 0.501674
 3660         c3    126    ccc     C3   3660 -0.15693500  12.010000   ; qtot 0.344739
 3661         h1    126    ccc     H5   3661 0.08499200   1.008000   ; qtot 0.429731
 3662         h1    126    ccc     H6   3662 0.08499200   1.008000   ; qtot 0.514723
 3663         n3    126    ccc     N1   3663 -0.29948700  14.010000   ; qtot 0.215236
 3664         c3    126    ccc     C4   3664 -0.01321200  12.010000   ; qtot 0.202024
 3665         h1    126    ccc     H7   3665 0.08172200   1.008000   ; qtot 0.283746
 3666         h1    126    ccc     H8   3666 0.08172200   1.008000   ; qtot 0.365468
 3667         c3    126    ccc     C5   3667 -0.22180000  12.010000   ; qtot 0.143668
 3668         hc    126    ccc     H9   3668 0.09671800   1.008000   ; qtot 0.240386
 3669         hc    126    ccc    H10   3669 0.09671800   1.008000   ; qtot 0.337104
 3670          c    126    ccc     C6   3670 0.526324  12.010000   ; qtot 1.333631
 3671          o    126    ccc     O1   3671 -0.39142825  16.000000   ; qtot 0.637125
 3672         oh    126    ccc     O2   3672 -0.56822625  16.000000   ; qtot -0.203686
 3673         ho    126    ccc    H11   3673 0.4186155   1.008000   ; qtot 0.322389
 3674         c3    126    ccc     C7   3674 -0.01321200  12.010000   ; qtot 0.309177
 3675         h1    126    ccc    H12   3675 0.08172200   1.008000   ; qtot 0.390899
 3676         h1    126    ccc    H13   3676 0.08172200   1.008000   ; qtot 0.472621
 3677         c3    126    ccc     C8   3677 -0.22180000  12.010000   ; qtot 0.250821
 3678         hc    126    ccc    H14   3678 0.09671800   1.008000   ; qtot 0.347539
 3679         hc    126    ccc    H15   3679 0.09671800   1.008000   ; qtot 0.444257
 3680          c    126    ccc     C9   3680 0.526324  12.010000   ; qtot 1.440784
 3681          o    126    ccc     O3   3681 -0.39142825  16.000000   ; qtot 0.744278
 3682         oh    126    ccc     O4   3682 -0.56822625  16.000000   ; qtot -0.096533
 3683         ho    126    ccc    H16   3683 0.4186155   1.008000   ; qtot 0.429542
 3684         os    126    ccc     O5   3684 -0.42966500  16.000000   ; qtot -0.000123
; residue  127 ccc rtp ccc q 0.0
 3685         c3    127    ccc     C1   3685 0.50749700  12.010000   ; qtot 0.507374
 3686         h1    127    ccc     H1   3686 -0.02808400   1.008000   ; qtot 0.479290
 3687         h1    127    ccc     H2   3687 -0.02808400   1.008000   ; qtot 0.451206
 3688         c3    127    ccc     C2   3688 -0.15486000  12.010000   ; qtot 0.296346
 3689         hc    127    ccc     H3   3689 0.10266400   1.008000   ; qtot 0.399010
 3690         hc    127    ccc     H4   3690 0.10266400   1.008000   ; qtot 0.501674
 3691         c3    127    ccc     C3   3691 -0.15693500  12.010000   ; qtot 0.344739
 3692         h1    127    ccc     H5   3692 0.08499200   1.008000   ; qtot 0.429731
 3693         h1    127    ccc     H6   3693 0.08499200   1.008000   ; qtot 0.514723
 3694         n3    127    ccc     N1   3694 -0.29948700  14.010000   ; qtot 0.215236
 3695         c3    127    ccc     C4   3695 -0.01321200  12.010000   ; qtot 0.202024
 3696         h1    127    ccc     H7   3696 0.08172200   1.008000   ; qtot 0.283746
 3697         h1    127    ccc     H8   3697 0.08172200   1.008000   ; qtot 0.365468
 3698         c3    127    ccc     C5   3698 -0.22180000  12.010000   ; qtot 0.143668
 3699         hc    127    ccc     H9   3699 0.09671800   1.008000   ; qtot 0.240386
 3700         hc    127    ccc    H10   3700 0.09671800   1.008000   ; qtot 0.337104
 3701          c    127    ccc     C6   3701 0.526324  12.010000   ; qtot 1.333631
 3702          o    127    ccc     O1   3702 -0.39142825  16.000000   ; qtot 0.637125
 3703         oh    127    ccc     O2   3703 -0.56822625  16.000000   ; qtot -0.203686
 3704         ho    127    ccc    H11   3704 0.4186155   1.008000   ; qtot 0.322389
 3705         c3    127    ccc     C7   3705 -0.01321200  12.010000   ; qtot 0.309177
 3706         h1    127    ccc    H12   3706 0.08172200   1.008000   ; qtot 0.390899
 3707         h1    127    ccc    H13   3707 0.08172200   1.008000   ; qtot 0.472621
 3708         c3    127    ccc     C8   3708 -0.22180000  12.010000   ; qtot 0.250821
 3709         hc    127    ccc    H14   3709 0.09671800   1.008000   ; qtot 0.347539
 3710         hc    127    ccc    H15   3710 0.09671800   1.008000   ; qtot 0.444257
 3711          c    127    ccc     C9   3711 0.526324  12.010000   ; qtot 1.440784
 3712          o    127    ccc     O3   3712 -0.39142825  16.000000   ; qtot 0.744278
 3713         oh    127    ccc     O4   3713 -0.56822625  16.000000   ; qtot -0.096533
 3714         ho    127    ccc    H16   3714 0.4186155   1.008000   ; qtot 0.429542
 3715         os    127    ccc     O5   3715 -0.42966500  16.000000   ; qtot -0.000123
; residue  128 ccc rtp ccc q 0.0
 3716         c3    128    ccc     C1   3716 0.50749700  12.010000   ; qtot 0.507374
 3717         h1    128    ccc     H1   3717 -0.02808400   1.008000   ; qtot 0.479290
 3718         h1    128    ccc     H2   3718 -0.02808400   1.008000   ; qtot 0.451206
 3719         c3    128    ccc     C2   3719 -0.15486000  12.010000   ; qtot 0.296346
 3720         hc    128    ccc     H3   3720 0.10266400   1.008000   ; qtot 0.399010
 3721         hc    128    ccc     H4   3721 0.10266400   1.008000   ; qtot 0.501674
 3722         c3    128    ccc     C3   3722 -0.15693500  12.010000   ; qtot 0.344739
 3723         h1    128    ccc     H5   3723 0.08499200   1.008000   ; qtot 0.429731
 3724         h1    128    ccc     H6   3724 0.08499200   1.008000   ; qtot 0.514723
 3725         n3    128    ccc     N1   3725 -0.29948700  14.010000   ; qtot 0.215236
 3726         c3    128    ccc     C4   3726 -0.01321200  12.010000   ; qtot 0.202024
 3727         h1    128    ccc     H7   3727 0.08172200   1.008000   ; qtot 0.283746
 3728         h1    128    ccc     H8   3728 0.08172200   1.008000   ; qtot 0.365468
 3729         c3    128    ccc     C5   3729 -0.22180000  12.010000   ; qtot 0.143668
 3730         hc    128    ccc     H9   3730 0.09671800   1.008000   ; qtot 0.240386
 3731         hc    128    ccc    H10   3731 0.09671800   1.008000   ; qtot 0.337104
 3732          c    128    ccc     C6   3732 0.526324  12.010000   ; qtot 1.333631
 3733          o    128    ccc     O1   3733 -0.39142825  16.000000   ; qtot 0.637125
 3734         oh    128    ccc     O2   3734 -0.56822625  16.000000   ; qtot -0.203686
 3735         ho    128    ccc    H11   3735 0.4186155   1.008000   ; qtot 0.322389
 3736         c3    128    ccc     C7   3736 -0.01321200  12.010000   ; qtot 0.309177
 3737         h1    128    ccc    H12   3737 0.08172200   1.008000   ; qtot 0.390899
 3738         h1    128    ccc    H13   3738 0.08172200   1.008000   ; qtot 0.472621
 3739         c3    128    ccc     C8   3739 -0.22180000  12.010000   ; qtot 0.250821
 3740         hc    128    ccc    H14   3740 0.09671800   1.008000   ; qtot 0.347539
 3741         hc    128    ccc    H15   3741 0.09671800   1.008000   ; qtot 0.444257
 3742          c    128    ccc     C9   3742 0.526324  12.010000   ; qtot 1.440784
 3743          o    128    ccc     O3   3743 -0.39142825  16.000000   ; qtot 0.744278
 3744         oh    128    ccc     O4   3744 -0.56822625  16.000000   ; qtot -0.096533
 3745         ho    128    ccc    H16   3745 0.4186155   1.008000   ; qtot 0.429542
 3746         os    128    ccc     O5   3746 -0.42966500  16.000000   ; qtot -0.000123
; residue  129 ccc rtp ccc q 0.0
 3747         c3    129    ccc     C1   3747 0.50749700  12.010000   ; qtot 0.507374
 3748         h1    129    ccc     H1   3748 -0.02808400   1.008000   ; qtot 0.479290
 3749         h1    129    ccc     H2   3749 -0.02808400   1.008000   ; qtot 0.451206
 3750         c3    129    ccc     C2   3750 -0.15486000  12.010000   ; qtot 0.296346
 3751         hc    129    ccc     H3   3751 0.10266400   1.008000   ; qtot 0.399010
 3752         hc    129    ccc     H4   3752 0.10266400   1.008000   ; qtot 0.501674
 3753         c3    129    ccc     C3   3753 -0.15693500  12.010000   ; qtot 0.344739
 3754         h1    129    ccc     H5   3754 0.08499200   1.008000   ; qtot 0.429731
 3755         h1    129    ccc     H6   3755 0.08499200   1.008000   ; qtot 0.514723
 3756         n3    129    ccc     N1   3756 -0.29948700  14.010000   ; qtot 0.215236
 3757         c3    129    ccc     C4   3757 -0.01321200  12.010000   ; qtot 0.202024
 3758         h1    129    ccc     H7   3758 0.08172200   1.008000   ; qtot 0.283746
 3759         h1    129    ccc     H8   3759 0.08172200   1.008000   ; qtot 0.365468
 3760         c3    129    ccc     C5   3760 -0.22180000  12.010000   ; qtot 0.143668
 3761         hc    129    ccc     H9   3761 0.09671800   1.008000   ; qtot 0.240386
 3762         hc    129    ccc    H10   3762 0.09671800   1.008000   ; qtot 0.337104
 3763          c    129    ccc     C6   3763 0.526324  12.010000   ; qtot 1.333631
 3764          o    129    ccc     O1   3764 -0.39142825  16.000000   ; qtot 0.637125
 3765         oh    129    ccc     O2   3765 -0.56822625  16.000000   ; qtot -0.203686
 3766         ho    129    ccc    H11   3766 0.4186155   1.008000   ; qtot 0.322389
 3767         c3    129    ccc     C7   3767 -0.01321200  12.010000   ; qtot 0.309177
 3768         h1    129    ccc    H12   3768 0.08172200   1.008000   ; qtot 0.390899
 3769         h1    129    ccc    H13   3769 0.08172200   1.008000   ; qtot 0.472621
 3770         c3    129    ccc     C8   3770 -0.22180000  12.010000   ; qtot 0.250821
 3771         hc    129    ccc    H14   3771 0.09671800   1.008000   ; qtot 0.347539
 3772         hc    129    ccc    H15   3772 0.09671800   1.008000   ; qtot 0.444257
 3773          c    129    ccc     C9   3773 0.526324  12.010000   ; qtot 1.440784
 3774          o    129    ccc     O3   3774 -0.39142825  16.000000   ; qtot 0.744278
 3775         oh    129    ccc     O4   3775 -0.56822625  16.000000   ; qtot -0.096533
 3776         ho    129    ccc    H16   3776 0.4186155   1.008000   ; qtot 0.429542
 3777         os    129    ccc     O5   3777 -0.42966500  16.000000   ; qtot -0.000123
; residue  130 ccc rtp ccc q 0.0
 3778         c3    130    ccc     C1   3778 0.50749700  12.010000   ; qtot 0.507374
 3779         h1    130    ccc     H1   3779 -0.02808400   1.008000   ; qtot 0.479290
 3780         h1    130    ccc     H2   3780 -0.02808400   1.008000   ; qtot 0.451206
 3781         c3    130    ccc     C2   3781 -0.15486000  12.010000   ; qtot 0.296346
 3782         hc    130    ccc     H3   3782 0.10266400   1.008000   ; qtot 0.399010
 3783         hc    130    ccc     H4   3783 0.10266400   1.008000   ; qtot 0.501674
 3784         c3    130    ccc     C3   3784 -0.15693500  12.010000   ; qtot 0.344739
 3785         h1    130    ccc     H5   3785 0.08499200   1.008000   ; qtot 0.429731
 3786         h1    130    ccc     H6   3786 0.08499200   1.008000   ; qtot 0.514723
 3787         n3    130    ccc     N1   3787 -0.29948700  14.010000   ; qtot 0.215236
 3788         c3    130    ccc     C4   3788 -0.01321200  12.010000   ; qtot 0.202024
 3789         h1    130    ccc     H7   3789 0.08172200   1.008000   ; qtot 0.283746
 3790         h1    130    ccc     H8   3790 0.08172200   1.008000   ; qtot 0.365468
 3791         c3    130    ccc     C5   3791 -0.22180000  12.010000   ; qtot 0.143668
 3792         hc    130    ccc     H9   3792 0.09671800   1.008000   ; qtot 0.240386
 3793         hc    130    ccc    H10   3793 0.09671800   1.008000   ; qtot 0.337104
 3794          c    130    ccc     C6   3794 0.526324  12.010000   ; qtot 1.333631
 3795          o    130    ccc     O1   3795 -0.39142825  16.000000   ; qtot 0.637125
 3796         oh    130    ccc     O2   3796 -0.56822625  16.000000   ; qtot -0.203686
 3797         ho    130    ccc    H11   3797 0.4186155   1.008000   ; qtot 0.322389
 3798         c3    130    ccc     C7   3798 -0.01321200  12.010000   ; qtot 0.309177
 3799         h1    130    ccc    H12   3799 0.08172200   1.008000   ; qtot 0.390899
 3800         h1    130    ccc    H13   3800 0.08172200   1.008000   ; qtot 0.472621
 3801         c3    130    ccc     C8   3801 -0.22180000  12.010000   ; qtot 0.250821
 3802         hc    130    ccc    H14   3802 0.09671800   1.008000   ; qtot 0.347539
 3803         hc    130    ccc    H15   3803 0.09671800   1.008000   ; qtot 0.444257
 3804          c    130    ccc     C9   3804 0.526324  12.010000   ; qtot 1.440784
 3805          o    130    ccc     O3   3805 -0.39142825  16.000000   ; qtot 0.744278
 3806         oh    130    ccc     O4   3806 -0.56822625  16.000000   ; qtot -0.096533
 3807         ho    130    ccc    H16   3807 0.4186155   1.008000   ; qtot 0.429542
 3808         os    130    ccc     O5   3808 -0.42966500  16.000000   ; qtot -0.000123
; residue  131 ccc rtp ccc q 0.0
 3809         c3    131    ccc     C1   3809 0.50749700  12.010000   ; qtot 0.507374
 3810         h1    131    ccc     H1   3810 -0.02808400   1.008000   ; qtot 0.479290
 3811         h1    131    ccc     H2   3811 -0.02808400   1.008000   ; qtot 0.451206
 3812         c3    131    ccc     C2   3812 -0.15486000  12.010000   ; qtot 0.296346
 3813         hc    131    ccc     H3   3813 0.10266400   1.008000   ; qtot 0.399010
 3814         hc    131    ccc     H4   3814 0.10266400   1.008000   ; qtot 0.501674
 3815         c3    131    ccc     C3   3815 -0.15693500  12.010000   ; qtot 0.344739
 3816         h1    131    ccc     H5   3816 0.08499200   1.008000   ; qtot 0.429731
 3817         h1    131    ccc     H6   3817 0.08499200   1.008000   ; qtot 0.514723
 3818         n3    131    ccc     N1   3818 -0.29948700  14.010000   ; qtot 0.215236
 3819         c3    131    ccc     C4   3819 -0.01321200  12.010000   ; qtot 0.202024
 3820         h1    131    ccc     H7   3820 0.08172200   1.008000   ; qtot 0.283746
 3821         h1    131    ccc     H8   3821 0.08172200   1.008000   ; qtot 0.365468
 3822         c3    131    ccc     C5   3822 -0.22180000  12.010000   ; qtot 0.143668
 3823         hc    131    ccc     H9   3823 0.09671800   1.008000   ; qtot 0.240386
 3824         hc    131    ccc    H10   3824 0.09671800   1.008000   ; qtot 0.337104
 3825          c    131    ccc     C6   3825 0.526324  12.010000   ; qtot 1.333631
 3826          o    131    ccc     O1   3826 -0.39142825  16.000000   ; qtot 0.637125
 3827         oh    131    ccc     O2   3827 -0.56822625  16.000000   ; qtot -0.203686
 3828         ho    131    ccc    H11   3828 0.4186155   1.008000   ; qtot 0.322389
 3829         c3    131    ccc     C7   3829 -0.01321200  12.010000   ; qtot 0.309177
 3830         h1    131    ccc    H12   3830 0.08172200   1.008000   ; qtot 0.390899
 3831         h1    131    ccc    H13   3831 0.08172200   1.008000   ; qtot 0.472621
 3832         c3    131    ccc     C8   3832 -0.22180000  12.010000   ; qtot 0.250821
 3833         hc    131    ccc    H14   3833 0.09671800   1.008000   ; qtot 0.347539
 3834         hc    131    ccc    H15   3834 0.09671800   1.008000   ; qtot 0.444257
 3835          c    131    ccc     C9   3835 0.526324  12.010000   ; qtot 1.440784
 3836          o    131    ccc     O3   3836 -0.39142825  16.000000   ; qtot 0.744278
 3837         oh    131    ccc     O4   3837 -0.56822625  16.000000   ; qtot -0.096533
 3838         ho    131    ccc    H16   3838 0.4186155   1.008000   ; qtot 0.429542
 3839         os    131    ccc     O5   3839 -0.42966500  16.000000   ; qtot -0.000123
; residue  132 ccc rtp ccc q 0.0
 3840         c3    132    ccc     C1   3840 0.50749700  12.010000   ; qtot 0.507374
 3841         h1    132    ccc     H1   3841 -0.02808400   1.008000   ; qtot 0.479290
 3842         h1    132    ccc     H2   3842 -0.02808400   1.008000   ; qtot 0.451206
 3843         c3    132    ccc     C2   3843 -0.15486000  12.010000   ; qtot 0.296346
 3844         hc    132    ccc     H3   3844 0.10266400   1.008000   ; qtot 0.399010
 3845         hc    132    ccc     H4   3845 0.10266400   1.008000   ; qtot 0.501674
 3846         c3    132    ccc     C3   3846 -0.15693500  12.010000   ; qtot 0.344739
 3847         h1    132    ccc     H5   3847 0.08499200   1.008000   ; qtot 0.429731
 3848         h1    132    ccc     H6   3848 0.08499200   1.008000   ; qtot 0.514723
 3849         n3    132    ccc     N1   3849 -0.29948700  14.010000   ; qtot 0.215236
 3850         c3    132    ccc     C4   3850 -0.01321200  12.010000   ; qtot 0.202024
 3851         h1    132    ccc     H7   3851 0.08172200   1.008000   ; qtot 0.283746
 3852         h1    132    ccc     H8   3852 0.08172200   1.008000   ; qtot 0.365468
 3853         c3    132    ccc     C5   3853 -0.22180000  12.010000   ; qtot 0.143668
 3854         hc    132    ccc     H9   3854 0.09671800   1.008000   ; qtot 0.240386
 3855         hc    132    ccc    H10   3855 0.09671800   1.008000   ; qtot 0.337104
 3856          c    132    ccc     C6   3856 0.526324  12.010000   ; qtot 1.333631
 3857          o    132    ccc     O1   3857 -0.39142825  16.000000   ; qtot 0.637125
 3858         oh    132    ccc     O2   3858 -0.56822625  16.000000   ; qtot -0.203686
 3859         ho    132    ccc    H11   3859 0.4186155   1.008000   ; qtot 0.322389
 3860         c3    132    ccc     C7   3860 -0.01321200  12.010000   ; qtot 0.309177
 3861         h1    132    ccc    H12   3861 0.08172200   1.008000   ; qtot 0.390899
 3862         h1    132    ccc    H13   3862 0.08172200   1.008000   ; qtot 0.472621
 3863         c3    132    ccc     C8   3863 -0.22180000  12.010000   ; qtot 0.250821
 3864         hc    132    ccc    H14   3864 0.09671800   1.008000   ; qtot 0.347539
 3865         hc    132    ccc    H15   3865 0.09671800   1.008000   ; qtot 0.444257
 3866          c    132    ccc     C9   3866 0.526324  12.010000   ; qtot 1.440784
 3867          o    132    ccc     O3   3867 -0.39142825  16.000000   ; qtot 0.744278
 3868         oh    132    ccc     O4   3868 -0.56822625  16.000000   ; qtot -0.096533
 3869         ho    132    ccc    H16   3869 0.4186155   1.008000   ; qtot 0.429542
 3870         os    132    ccc     O5   3870 -0.42966500  16.000000   ; qtot -0.000123
; residue  133 ccc rtp ccc q 0.0
 3871         c3    133    ccc     C1   3871 0.50749700  12.010000   ; qtot 0.507374
 3872         h1    133    ccc     H1   3872 -0.02808400   1.008000   ; qtot 0.479290
 3873         h1    133    ccc     H2   3873 -0.02808400   1.008000   ; qtot 0.451206
 3874         c3    133    ccc     C2   3874 -0.15486000  12.010000   ; qtot 0.296346
 3875         hc    133    ccc     H3   3875 0.10266400   1.008000   ; qtot 0.399010
 3876         hc    133    ccc     H4   3876 0.10266400   1.008000   ; qtot 0.501674
 3877         c3    133    ccc     C3   3877 -0.15693500  12.010000   ; qtot 0.344739
 3878         h1    133    ccc     H5   3878 0.08499200   1.008000   ; qtot 0.429731
 3879         h1    133    ccc     H6   3879 0.08499200   1.008000   ; qtot 0.514723
 3880         n3    133    ccc     N1   3880 -0.29948700  14.010000   ; qtot 0.215236
 3881         c3    133    ccc     C4   3881 -0.01321200  12.010000   ; qtot 0.202024
 3882         h1    133    ccc     H7   3882 0.08172200   1.008000   ; qtot 0.283746
 3883         h1    133    ccc     H8   3883 0.08172200   1.008000   ; qtot 0.365468
 3884         c3    133    ccc     C5   3884 -0.22180000  12.010000   ; qtot 0.143668
 3885         hc    133    ccc     H9   3885 0.09671800   1.008000   ; qtot 0.240386
 3886         hc    133    ccc    H10   3886 0.09671800   1.008000   ; qtot 0.337104
 3887          c    133    ccc     C6   3887 0.526324  12.010000   ; qtot 1.333631
 3888          o    133    ccc     O1   3888 -0.39142825  16.000000   ; qtot 0.637125
 3889         oh    133    ccc     O2   3889 -0.56822625  16.000000   ; qtot -0.203686
 3890         ho    133    ccc    H11   3890 0.4186155   1.008000   ; qtot 0.322389
 3891         c3    133    ccc     C7   3891 -0.01321200  12.010000   ; qtot 0.309177
 3892         h1    133    ccc    H12   3892 0.08172200   1.008000   ; qtot 0.390899
 3893         h1    133    ccc    H13   3893 0.08172200   1.008000   ; qtot 0.472621
 3894         c3    133    ccc     C8   3894 -0.22180000  12.010000   ; qtot 0.250821
 3895         hc    133    ccc    H14   3895 0.09671800   1.008000   ; qtot 0.347539
 3896         hc    133    ccc    H15   3896 0.09671800   1.008000   ; qtot 0.444257
 3897          c    133    ccc     C9   3897 0.526324  12.010000   ; qtot 1.440784
 3898          o    133    ccc     O3   3898 -0.39142825  16.000000   ; qtot 0.744278
 3899         oh    133    ccc     O4   3899 -0.56822625  16.000000   ; qtot -0.096533
 3900         ho    133    ccc    H16   3900 0.4186155   1.008000   ; qtot 0.429542
 3901         os    133    ccc     O5   3901 -0.42966500  16.000000   ; qtot -0.000123
; residue  134 ccc rtp ccc q 0.0
 3902         c3    134    ccc     C1   3902 0.50749700  12.010000   ; qtot 0.507374
 3903         h1    134    ccc     H1   3903 -0.02808400   1.008000   ; qtot 0.479290
 3904         h1    134    ccc     H2   3904 -0.02808400   1.008000   ; qtot 0.451206
 3905         c3    134    ccc     C2   3905 -0.15486000  12.010000   ; qtot 0.296346
 3906         hc    134    ccc     H3   3906 0.10266400   1.008000   ; qtot 0.399010
 3907         hc    134    ccc     H4   3907 0.10266400   1.008000   ; qtot 0.501674
 3908         c3    134    ccc     C3   3908 -0.15693500  12.010000   ; qtot 0.344739
 3909         h1    134    ccc     H5   3909 0.08499200   1.008000   ; qtot 0.429731
 3910         h1    134    ccc     H6   3910 0.08499200   1.008000   ; qtot 0.514723
 3911         n3    134    ccc     N1   3911 -0.29948700  14.010000   ; qtot 0.215236
 3912         c3    134    ccc     C4   3912 -0.01321200  12.010000   ; qtot 0.202024
 3913         h1    134    ccc     H7   3913 0.08172200   1.008000   ; qtot 0.283746
 3914         h1    134    ccc     H8   3914 0.08172200   1.008000   ; qtot 0.365468
 3915         c3    134    ccc     C5   3915 -0.22180000  12.010000   ; qtot 0.143668
 3916         hc    134    ccc     H9   3916 0.09671800   1.008000   ; qtot 0.240386
 3917         hc    134    ccc    H10   3917 0.09671800   1.008000   ; qtot 0.337104
 3918          c    134    ccc     C6   3918 0.526324  12.010000   ; qtot 1.333631
 3919          o    134    ccc     O1   3919 -0.39142825  16.000000   ; qtot 0.637125
 3920         oh    134    ccc     O2   3920 -0.56822625  16.000000   ; qtot -0.203686
 3921         ho    134    ccc    H11   3921 0.4186155   1.008000   ; qtot 0.322389
 3922         c3    134    ccc     C7   3922 -0.01321200  12.010000   ; qtot 0.309177
 3923         h1    134    ccc    H12   3923 0.08172200   1.008000   ; qtot 0.390899
 3924         h1    134    ccc    H13   3924 0.08172200   1.008000   ; qtot 0.472621
 3925         c3    134    ccc     C8   3925 -0.22180000  12.010000   ; qtot 0.250821
 3926         hc    134    ccc    H14   3926 0.09671800   1.008000   ; qtot 0.347539
 3927         hc    134    ccc    H15   3927 0.09671800   1.008000   ; qtot 0.444257
 3928          c    134    ccc     C9   3928 0.526324  12.010000   ; qtot 1.440784
 3929          o    134    ccc     O3   3929 -0.39142825  16.000000   ; qtot 0.744278
 3930         oh    134    ccc     O4   3930 -0.56822625  16.000000   ; qtot -0.096533
 3931         ho    134    ccc    H16   3931 0.4186155   1.008000   ; qtot 0.429542
 3932         os    134    ccc     O5   3932 -0.42966500  16.000000   ; qtot -0.000123
; residue  135 ccc rtp ccc q 0.0
 3933         c3    135    ccc     C1   3933 0.50749700  12.010000   ; qtot 0.507374
 3934         h1    135    ccc     H1   3934 -0.02808400   1.008000   ; qtot 0.479290
 3935         h1    135    ccc     H2   3935 -0.02808400   1.008000   ; qtot 0.451206
 3936         c3    135    ccc     C2   3936 -0.15486000  12.010000   ; qtot 0.296346
 3937         hc    135    ccc     H3   3937 0.10266400   1.008000   ; qtot 0.399010
 3938         hc    135    ccc     H4   3938 0.10266400   1.008000   ; qtot 0.501674
 3939         c3    135    ccc     C3   3939 -0.15693500  12.010000   ; qtot 0.344739
 3940         h1    135    ccc     H5   3940 0.08499200   1.008000   ; qtot 0.429731
 3941         h1    135    ccc     H6   3941 0.08499200   1.008000   ; qtot 0.514723
 3942         n3    135    ccc     N1   3942 -0.29948700  14.010000   ; qtot 0.215236
 3943         c3    135    ccc     C4   3943 -0.01321200  12.010000   ; qtot 0.202024
 3944         h1    135    ccc     H7   3944 0.08172200   1.008000   ; qtot 0.283746
 3945         h1    135    ccc     H8   3945 0.08172200   1.008000   ; qtot 0.365468
 3946         c3    135    ccc     C5   3946 -0.22180000  12.010000   ; qtot 0.143668
 3947         hc    135    ccc     H9   3947 0.09671800   1.008000   ; qtot 0.240386
 3948         hc    135    ccc    H10   3948 0.09671800   1.008000   ; qtot 0.337104
 3949          c    135    ccc     C6   3949 0.526324  12.010000   ; qtot 1.333631
 3950          o    135    ccc     O1   3950 -0.39142825  16.000000   ; qtot 0.637125
 3951         oh    135    ccc     O2   3951 -0.56822625  16.000000   ; qtot -0.203686
 3952         ho    135    ccc    H11   3952 0.4186155   1.008000   ; qtot 0.322389
 3953         c3    135    ccc     C7   3953 -0.01321200  12.010000   ; qtot 0.309177
 3954         h1    135    ccc    H12   3954 0.08172200   1.008000   ; qtot 0.390899
 3955         h1    135    ccc    H13   3955 0.08172200   1.008000   ; qtot 0.472621
 3956         c3    135    ccc     C8   3956 -0.22180000  12.010000   ; qtot 0.250821
 3957         hc    135    ccc    H14   3957 0.09671800   1.008000   ; qtot 0.347539
 3958         hc    135    ccc    H15   3958 0.09671800   1.008000   ; qtot 0.444257
 3959          c    135    ccc     C9   3959 0.526324  12.010000   ; qtot 1.440784
 3960          o    135    ccc     O3   3960 -0.39142825  16.000000   ; qtot 0.744278
 3961         oh    135    ccc     O4   3961 -0.56822625  16.000000   ; qtot -0.096533
 3962         ho    135    ccc    H16   3962 0.4186155   1.008000   ; qtot 0.429542
 3963         os    135    ccc     O5   3963 -0.42966500  16.000000   ; qtot -0.000123
; residue  136 ccc rtp ccc q 0.0
 3964         c3    136    ccc     C1   3964 0.50749700  12.010000   ; qtot 0.507374
 3965         h1    136    ccc     H1   3965 -0.02808400   1.008000   ; qtot 0.479290
 3966         h1    136    ccc     H2   3966 -0.02808400   1.008000   ; qtot 0.451206
 3967         c3    136    ccc     C2   3967 -0.15486000  12.010000   ; qtot 0.296346
 3968         hc    136    ccc     H3   3968 0.10266400   1.008000   ; qtot 0.399010
 3969         hc    136    ccc     H4   3969 0.10266400   1.008000   ; qtot 0.501674
 3970         c3    136    ccc     C3   3970 -0.15693500  12.010000   ; qtot 0.344739
 3971         h1    136    ccc     H5   3971 0.08499200   1.008000   ; qtot 0.429731
 3972         h1    136    ccc     H6   3972 0.08499200   1.008000   ; qtot 0.514723
 3973         n3    136    ccc     N1   3973 -0.29948700  14.010000   ; qtot 0.215236
 3974         c3    136    ccc     C4   3974 -0.01321200  12.010000   ; qtot 0.202024
 3975         h1    136    ccc     H7   3975 0.08172200   1.008000   ; qtot 0.283746
 3976         h1    136    ccc     H8   3976 0.08172200   1.008000   ; qtot 0.365468
 3977         c3    136    ccc     C5   3977 -0.22180000  12.010000   ; qtot 0.143668
 3978         hc    136    ccc     H9   3978 0.09671800   1.008000   ; qtot 0.240386
 3979         hc    136    ccc    H10   3979 0.09671800   1.008000   ; qtot 0.337104
 3980          c    136    ccc     C6   3980 0.526324  12.010000   ; qtot 1.333631
 3981          o    136    ccc     O1   3981 -0.39142825  16.000000   ; qtot 0.637125
 3982         oh    136    ccc     O2   3982 -0.56822625  16.000000   ; qtot -0.203686
 3983         ho    136    ccc    H11   3983 0.4186155   1.008000   ; qtot 0.322389
 3984         c3    136    ccc     C7   3984 -0.01321200  12.010000   ; qtot 0.309177
 3985         h1    136    ccc    H12   3985 0.08172200   1.008000   ; qtot 0.390899
 3986         h1    136    ccc    H13   3986 0.08172200   1.008000   ; qtot 0.472621
 3987         c3    136    ccc     C8   3987 -0.22180000  12.010000   ; qtot 0.250821
 3988         hc    136    ccc    H14   3988 0.09671800   1.008000   ; qtot 0.347539
 3989         hc    136    ccc    H15   3989 0.09671800   1.008000   ; qtot 0.444257
 3990          c    136    ccc     C9   3990 0.526324  12.010000   ; qtot 1.440784
 3991          o    136    ccc     O3   3991 -0.39142825  16.000000   ; qtot 0.744278
 3992         oh    136    ccc     O4   3992 -0.56822625  16.000000   ; qtot -0.096533
 3993         ho    136    ccc    H16   3993 0.4186155   1.008000   ; qtot 0.429542
 3994         os    136    ccc     O5   3994 -0.42966500  16.000000   ; qtot -0.000123
; residue  137 ccc rtp ccc q 0.0
 3995         c3    137    ccc     C1   3995 0.50749700  12.010000   ; qtot 0.507374
 3996         h1    137    ccc     H1   3996 -0.02808400   1.008000   ; qtot 0.479290
 3997         h1    137    ccc     H2   3997 -0.02808400   1.008000   ; qtot 0.451206
 3998         c3    137    ccc     C2   3998 -0.15486000  12.010000   ; qtot 0.296346
 3999         hc    137    ccc     H3   3999 0.10266400   1.008000   ; qtot 0.399010
 4000         hc    137    ccc     H4   4000 0.10266400   1.008000   ; qtot 0.501674
 4001         c3    137    ccc     C3   4001 -0.15693500  12.010000   ; qtot 0.344739
 4002         h1    137    ccc     H5   4002 0.08499200   1.008000   ; qtot 0.429731
 4003         h1    137    ccc     H6   4003 0.08499200   1.008000   ; qtot 0.514723
 4004         n3    137    ccc     N1   4004 -0.29948700  14.010000   ; qtot 0.215236
 4005         c3    137    ccc     C4   4005 -0.01321200  12.010000   ; qtot 0.202024
 4006         h1    137    ccc     H7   4006 0.08172200   1.008000   ; qtot 0.283746
 4007         h1    137    ccc     H8   4007 0.08172200   1.008000   ; qtot 0.365468
 4008         c3    137    ccc     C5   4008 -0.22180000  12.010000   ; qtot 0.143668
 4009         hc    137    ccc     H9   4009 0.09671800   1.008000   ; qtot 0.240386
 4010         hc    137    ccc    H10   4010 0.09671800   1.008000   ; qtot 0.337104
 4011          c    137    ccc     C6   4011 0.526324  12.010000   ; qtot 1.333631
 4012          o    137    ccc     O1   4012 -0.39142825  16.000000   ; qtot 0.637125
 4013         oh    137    ccc     O2   4013 -0.56822625  16.000000   ; qtot -0.203686
 4014         ho    137    ccc    H11   4014 0.4186155   1.008000   ; qtot 0.322389
 4015         c3    137    ccc     C7   4015 -0.01321200  12.010000   ; qtot 0.309177
 4016         h1    137    ccc    H12   4016 0.08172200   1.008000   ; qtot 0.390899
 4017         h1    137    ccc    H13   4017 0.08172200   1.008000   ; qtot 0.472621
 4018         c3    137    ccc     C8   4018 -0.22180000  12.010000   ; qtot 0.250821
 4019         hc    137    ccc    H14   4019 0.09671800   1.008000   ; qtot 0.347539
 4020         hc    137    ccc    H15   4020 0.09671800   1.008000   ; qtot 0.444257
 4021          c    137    ccc     C9   4021 0.526324  12.010000   ; qtot 1.440784
 4022          o    137    ccc     O3   4022 -0.39142825  16.000000   ; qtot 0.744278
 4023         oh    137    ccc     O4   4023 -0.56822625  16.000000   ; qtot -0.096533
 4024         ho    137    ccc    H16   4024 0.4186155   1.008000   ; qtot 0.429542
 4025         os    137    ccc     O5   4025 -0.42966500  16.000000   ; qtot -0.000123
; residue  138 ccc rtp ccc q 0.0
 4026         c3    138    ccc     C1   4026 0.50749700  12.010000   ; qtot 0.507374
 4027         h1    138    ccc     H1   4027 -0.02808400   1.008000   ; qtot 0.479290
 4028         h1    138    ccc     H2   4028 -0.02808400   1.008000   ; qtot 0.451206
 4029         c3    138    ccc     C2   4029 -0.15486000  12.010000   ; qtot 0.296346
 4030         hc    138    ccc     H3   4030 0.10266400   1.008000   ; qtot 0.399010
 4031         hc    138    ccc     H4   4031 0.10266400   1.008000   ; qtot 0.501674
 4032         c3    138    ccc     C3   4032 -0.15693500  12.010000   ; qtot 0.344739
 4033         h1    138    ccc     H5   4033 0.08499200   1.008000   ; qtot 0.429731
 4034         h1    138    ccc     H6   4034 0.08499200   1.008000   ; qtot 0.514723
 4035         n3    138    ccc     N1   4035 -0.29948700  14.010000   ; qtot 0.215236
 4036         c3    138    ccc     C4   4036 -0.01321200  12.010000   ; qtot 0.202024
 4037         h1    138    ccc     H7   4037 0.08172200   1.008000   ; qtot 0.283746
 4038         h1    138    ccc     H8   4038 0.08172200   1.008000   ; qtot 0.365468
 4039         c3    138    ccc     C5   4039 -0.22180000  12.010000   ; qtot 0.143668
 4040         hc    138    ccc     H9   4040 0.09671800   1.008000   ; qtot 0.240386
 4041         hc    138    ccc    H10   4041 0.09671800   1.008000   ; qtot 0.337104
 4042          c    138    ccc     C6   4042 0.526324  12.010000   ; qtot 1.333631
 4043          o    138    ccc     O1   4043 -0.39142825  16.000000   ; qtot 0.637125
 4044         oh    138    ccc     O2   4044 -0.56822625  16.000000   ; qtot -0.203686
 4045         ho    138    ccc    H11   4045 0.4186155   1.008000   ; qtot 0.322389
 4046         c3    138    ccc     C7   4046 -0.01321200  12.010000   ; qtot 0.309177
 4047         h1    138    ccc    H12   4047 0.08172200   1.008000   ; qtot 0.390899
 4048         h1    138    ccc    H13   4048 0.08172200   1.008000   ; qtot 0.472621
 4049         c3    138    ccc     C8   4049 -0.22180000  12.010000   ; qtot 0.250821
 4050         hc    138    ccc    H14   4050 0.09671800   1.008000   ; qtot 0.347539
 4051         hc    138    ccc    H15   4051 0.09671800   1.008000   ; qtot 0.444257
 4052          c    138    ccc     C9   4052 0.526324  12.010000   ; qtot 1.440784
 4053          o    138    ccc     O3   4053 -0.39142825  16.000000   ; qtot 0.744278
 4054         oh    138    ccc     O4   4054 -0.56822625  16.000000   ; qtot -0.096533
 4055         ho    138    ccc    H16   4055 0.4186155   1.008000   ; qtot 0.429542
 4056         os    138    ccc     O5   4056 -0.42966500  16.000000   ; qtot -0.000123
; residue  139 ccc rtp ccc q 0.0
 4057         c3    139    ccc     C1   4057 0.50749700  12.010000   ; qtot 0.507374
 4058         h1    139    ccc     H1   4058 -0.02808400   1.008000   ; qtot 0.479290
 4059         h1    139    ccc     H2   4059 -0.02808400   1.008000   ; qtot 0.451206
 4060         c3    139    ccc     C2   4060 -0.15486000  12.010000   ; qtot 0.296346
 4061         hc    139    ccc     H3   4061 0.10266400   1.008000   ; qtot 0.399010
 4062         hc    139    ccc     H4   4062 0.10266400   1.008000   ; qtot 0.501674
 4063         c3    139    ccc     C3   4063 -0.15693500  12.010000   ; qtot 0.344739
 4064         h1    139    ccc     H5   4064 0.08499200   1.008000   ; qtot 0.429731
 4065         h1    139    ccc     H6   4065 0.08499200   1.008000   ; qtot 0.514723
 4066         n3    139    ccc     N1   4066 -0.29948700  14.010000   ; qtot 0.215236
 4067         c3    139    ccc     C4   4067 -0.01321200  12.010000   ; qtot 0.202024
 4068         h1    139    ccc     H7   4068 0.08172200   1.008000   ; qtot 0.283746
 4069         h1    139    ccc     H8   4069 0.08172200   1.008000   ; qtot 0.365468
 4070         c3    139    ccc     C5   4070 -0.22180000  12.010000   ; qtot 0.143668
 4071         hc    139    ccc     H9   4071 0.09671800   1.008000   ; qtot 0.240386
 4072         hc    139    ccc    H10   4072 0.09671800   1.008000   ; qtot 0.337104
 4073          c    139    ccc     C6   4073 0.526324  12.010000   ; qtot 1.333631
 4074          o    139    ccc     O1   4074 -0.39142825  16.000000   ; qtot 0.637125
 4075         oh    139    ccc     O2   4075 -0.56822625  16.000000   ; qtot -0.203686
 4076         ho    139    ccc    H11   4076 0.4186155   1.008000   ; qtot 0.322389
 4077         c3    139    ccc     C7   4077 -0.01321200  12.010000   ; qtot 0.309177
 4078         h1    139    ccc    H12   4078 0.08172200   1.008000   ; qtot 0.390899
 4079         h1    139    ccc    H13   4079 0.08172200   1.008000   ; qtot 0.472621
 4080         c3    139    ccc     C8   4080 -0.22180000  12.010000   ; qtot 0.250821
 4081         hc    139    ccc    H14   4081 0.09671800   1.008000   ; qtot 0.347539
 4082         hc    139    ccc    H15   4082 0.09671800   1.008000   ; qtot 0.444257
 4083          c    139    ccc     C9   4083 0.526324  12.010000   ; qtot 1.440784
 4084          o    139    ccc     O3   4084 -0.39142825  16.000000   ; qtot 0.744278
 4085         oh    139    ccc     O4   4085 -0.56822625  16.000000   ; qtot -0.096533
 4086         ho    139    ccc    H16   4086 0.4186155   1.008000   ; qtot 0.429542
 4087         os    139    ccc     O5   4087 -0.42966500  16.000000   ; qtot -0.000123
; residue  140 ccc rtp ccc q 0.0
 4088         c3    140    ccc     C1   4088 0.50749700  12.010000   ; qtot 0.507374
 4089         h1    140    ccc     H1   4089 -0.02808400   1.008000   ; qtot 0.479290
 4090         h1    140    ccc     H2   4090 -0.02808400   1.008000   ; qtot 0.451206
 4091         c3    140    ccc     C2   4091 -0.15486000  12.010000   ; qtot 0.296346
 4092         hc    140    ccc     H3   4092 0.10266400   1.008000   ; qtot 0.399010
 4093         hc    140    ccc     H4   4093 0.10266400   1.008000   ; qtot 0.501674
 4094         c3    140    ccc     C3   4094 -0.15693500  12.010000   ; qtot 0.344739
 4095         h1    140    ccc     H5   4095 0.08499200   1.008000   ; qtot 0.429731
 4096         h1    140    ccc     H6   4096 0.08499200   1.008000   ; qtot 0.514723
 4097         n3    140    ccc     N1   4097 -0.29948700  14.010000   ; qtot 0.215236
 4098         c3    140    ccc     C4   4098 -0.01321200  12.010000   ; qtot 0.202024
 4099         h1    140    ccc     H7   4099 0.08172200   1.008000   ; qtot 0.283746
 4100         h1    140    ccc     H8   4100 0.08172200   1.008000   ; qtot 0.365468
 4101         c3    140    ccc     C5   4101 -0.22180000  12.010000   ; qtot 0.143668
 4102         hc    140    ccc     H9   4102 0.09671800   1.008000   ; qtot 0.240386
 4103         hc    140    ccc    H10   4103 0.09671800   1.008000   ; qtot 0.337104
 4104          c    140    ccc     C6   4104 0.526324  12.010000   ; qtot 1.333631
 4105          o    140    ccc     O1   4105 -0.39142825  16.000000   ; qtot 0.637125
 4106         oh    140    ccc     O2   4106 -0.56822625  16.000000   ; qtot -0.203686
 4107         ho    140    ccc    H11   4107 0.4186155   1.008000   ; qtot 0.322389
 4108         c3    140    ccc     C7   4108 -0.01321200  12.010000   ; qtot 0.309177
 4109         h1    140    ccc    H12   4109 0.08172200   1.008000   ; qtot 0.390899
 4110         h1    140    ccc    H13   4110 0.08172200   1.008000   ; qtot 0.472621
 4111         c3    140    ccc     C8   4111 -0.22180000  12.010000   ; qtot 0.250821
 4112         hc    140    ccc    H14   4112 0.09671800   1.008000   ; qtot 0.347539
 4113         hc    140    ccc    H15   4113 0.09671800   1.008000   ; qtot 0.444257
 4114          c    140    ccc     C9   4114 0.526324  12.010000   ; qtot 1.440784
 4115          o    140    ccc     O3   4115 -0.39142825  16.000000   ; qtot 0.744278
 4116         oh    140    ccc     O4   4116 -0.56822625  16.000000   ; qtot -0.096533
 4117         ho    140    ccc    H16   4117 0.4186155   1.008000   ; qtot 0.429542
 4118         os    140    ccc     O5   4118 -0.42966500  16.000000   ; qtot -0.000123
; residue  141 ccc rtp ccc q 0.0
 4119         c3    141    ccc     C1   4119 0.50749700  12.010000   ; qtot 0.507374
 4120         h1    141    ccc     H1   4120 -0.02808400   1.008000   ; qtot 0.479290
 4121         h1    141    ccc     H2   4121 -0.02808400   1.008000   ; qtot 0.451206
 4122         c3    141    ccc     C2   4122 -0.15486000  12.010000   ; qtot 0.296346
 4123         hc    141    ccc     H3   4123 0.10266400   1.008000   ; qtot 0.399010
 4124         hc    141    ccc     H4   4124 0.10266400   1.008000   ; qtot 0.501674
 4125         c3    141    ccc     C3   4125 -0.15693500  12.010000   ; qtot 0.344739
 4126         h1    141    ccc     H5   4126 0.08499200   1.008000   ; qtot 0.429731
 4127         h1    141    ccc     H6   4127 0.08499200   1.008000   ; qtot 0.514723
 4128         n3    141    ccc     N1   4128 -0.29948700  14.010000   ; qtot 0.215236
 4129         c3    141    ccc     C4   4129 -0.01321200  12.010000   ; qtot 0.202024
 4130         h1    141    ccc     H7   4130 0.08172200   1.008000   ; qtot 0.283746
 4131         h1    141    ccc     H8   4131 0.08172200   1.008000   ; qtot 0.365468
 4132         c3    141    ccc     C5   4132 -0.22180000  12.010000   ; qtot 0.143668
 4133         hc    141    ccc     H9   4133 0.09671800   1.008000   ; qtot 0.240386
 4134         hc    141    ccc    H10   4134 0.09671800   1.008000   ; qtot 0.337104
 4135          c    141    ccc     C6   4135 0.526324  12.010000   ; qtot 1.333631
 4136          o    141    ccc     O1   4136 -0.39142825  16.000000   ; qtot 0.637125
 4137         oh    141    ccc     O2   4137 -0.56822625  16.000000   ; qtot -0.203686
 4138         ho    141    ccc    H11   4138 0.4186155   1.008000   ; qtot 0.322389
 4139         c3    141    ccc     C7   4139 -0.01321200  12.010000   ; qtot 0.309177
 4140         h1    141    ccc    H12   4140 0.08172200   1.008000   ; qtot 0.390899
 4141         h1    141    ccc    H13   4141 0.08172200   1.008000   ; qtot 0.472621
 4142         c3    141    ccc     C8   4142 -0.22180000  12.010000   ; qtot 0.250821
 4143         hc    141    ccc    H14   4143 0.09671800   1.008000   ; qtot 0.347539
 4144         hc    141    ccc    H15   4144 0.09671800   1.008000   ; qtot 0.444257
 4145          c    141    ccc     C9   4145 0.526324  12.010000   ; qtot 1.440784
 4146          o    141    ccc     O3   4146 -0.39142825  16.000000   ; qtot 0.744278
 4147         oh    141    ccc     O4   4147 -0.56822625  16.000000   ; qtot -0.096533
 4148         ho    141    ccc    H16   4148 0.4186155   1.008000   ; qtot 0.429542
 4149         os    141    ccc     O5   4149 -0.42966500  16.000000   ; qtot -0.000123
; residue  142 ccc rtp ccc q 0.0
 4150         c3    142    ccc     C1   4150 0.50749700  12.010000   ; qtot 0.507374
 4151         h1    142    ccc     H1   4151 -0.02808400   1.008000   ; qtot 0.479290
 4152         h1    142    ccc     H2   4152 -0.02808400   1.008000   ; qtot 0.451206
 4153         c3    142    ccc     C2   4153 -0.15486000  12.010000   ; qtot 0.296346
 4154         hc    142    ccc     H3   4154 0.10266400   1.008000   ; qtot 0.399010
 4155         hc    142    ccc     H4   4155 0.10266400   1.008000   ; qtot 0.501674
 4156         c3    142    ccc     C3   4156 -0.15693500  12.010000   ; qtot 0.344739
 4157         h1    142    ccc     H5   4157 0.08499200   1.008000   ; qtot 0.429731
 4158         h1    142    ccc     H6   4158 0.08499200   1.008000   ; qtot 0.514723
 4159         n3    142    ccc     N1   4159 -0.29948700  14.010000   ; qtot 0.215236
 4160         c3    142    ccc     C4   4160 -0.01321200  12.010000   ; qtot 0.202024
 4161         h1    142    ccc     H7   4161 0.08172200   1.008000   ; qtot 0.283746
 4162         h1    142    ccc     H8   4162 0.08172200   1.008000   ; qtot 0.365468
 4163         c3    142    ccc     C5   4163 -0.22180000  12.010000   ; qtot 0.143668
 4164         hc    142    ccc     H9   4164 0.09671800   1.008000   ; qtot 0.240386
 4165         hc    142    ccc    H10   4165 0.09671800   1.008000   ; qtot 0.337104
 4166          c    142    ccc     C6   4166 0.526324  12.010000   ; qtot 1.333631
 4167          o    142    ccc     O1   4167 -0.39142825  16.000000   ; qtot 0.637125
 4168         oh    142    ccc     O2   4168 -0.56822625  16.000000   ; qtot -0.203686
 4169         ho    142    ccc    H11   4169 0.4186155   1.008000   ; qtot 0.322389
 4170         c3    142    ccc     C7   4170 -0.01321200  12.010000   ; qtot 0.309177
 4171         h1    142    ccc    H12   4171 0.08172200   1.008000   ; qtot 0.390899
 4172         h1    142    ccc    H13   4172 0.08172200   1.008000   ; qtot 0.472621
 4173         c3    142    ccc     C8   4173 -0.22180000  12.010000   ; qtot 0.250821
 4174         hc    142    ccc    H14   4174 0.09671800   1.008000   ; qtot 0.347539
 4175         hc    142    ccc    H15   4175 0.09671800   1.008000   ; qtot 0.444257
 4176          c    142    ccc     C9   4176 0.526324  12.010000   ; qtot 1.440784
 4177          o    142    ccc     O3   4177 -0.39142825  16.000000   ; qtot 0.744278
 4178         oh    142    ccc     O4   4178 -0.56822625  16.000000   ; qtot -0.096533
 4179         ho    142    ccc    H16   4179 0.4186155   1.008000   ; qtot 0.429542
 4180         os    142    ccc     O5   4180 -0.42966500  16.000000   ; qtot -0.000123
; residue  143 ccc rtp ccc q 0.0
 4181         c3    143    ccc     C1   4181 0.50749700  12.010000   ; qtot 0.507374
 4182         h1    143    ccc     H1   4182 -0.02808400   1.008000   ; qtot 0.479290
 4183         h1    143    ccc     H2   4183 -0.02808400   1.008000   ; qtot 0.451206
 4184         c3    143    ccc     C2   4184 -0.15486000  12.010000   ; qtot 0.296346
 4185         hc    143    ccc     H3   4185 0.10266400   1.008000   ; qtot 0.399010
 4186         hc    143    ccc     H4   4186 0.10266400   1.008000   ; qtot 0.501674
 4187         c3    143    ccc     C3   4187 -0.15693500  12.010000   ; qtot 0.344739
 4188         h1    143    ccc     H5   4188 0.08499200   1.008000   ; qtot 0.429731
 4189         h1    143    ccc     H6   4189 0.08499200   1.008000   ; qtot 0.514723
 4190         n3    143    ccc     N1   4190 -0.29948700  14.010000   ; qtot 0.215236
 4191         c3    143    ccc     C4   4191 -0.01321200  12.010000   ; qtot 0.202024
 4192         h1    143    ccc     H7   4192 0.08172200   1.008000   ; qtot 0.283746
 4193         h1    143    ccc     H8   4193 0.08172200   1.008000   ; qtot 0.365468
 4194         c3    143    ccc     C5   4194 -0.22180000  12.010000   ; qtot 0.143668
 4195         hc    143    ccc     H9   4195 0.09671800   1.008000   ; qtot 0.240386
 4196         hc    143    ccc    H10   4196 0.09671800   1.008000   ; qtot 0.337104
 4197          c    143    ccc     C6   4197 0.526324  12.010000   ; qtot 1.333631
 4198          o    143    ccc     O1   4198 -0.39142825  16.000000   ; qtot 0.637125
 4199         oh    143    ccc     O2   4199 -0.56822625  16.000000   ; qtot -0.203686
 4200         ho    143    ccc    H11   4200 0.4186155   1.008000   ; qtot 0.322389
 4201         c3    143    ccc     C7   4201 -0.01321200  12.010000   ; qtot 0.309177
 4202         h1    143    ccc    H12   4202 0.08172200   1.008000   ; qtot 0.390899
 4203         h1    143    ccc    H13   4203 0.08172200   1.008000   ; qtot 0.472621
 4204         c3    143    ccc     C8   4204 -0.22180000  12.010000   ; qtot 0.250821
 4205         hc    143    ccc    H14   4205 0.09671800   1.008000   ; qtot 0.347539
 4206         hc    143    ccc    H15   4206 0.09671800   1.008000   ; qtot 0.444257
 4207          c    143    ccc     C9   4207 0.526324  12.010000   ; qtot 1.440784
 4208          o    143    ccc     O3   4208 -0.39142825  16.000000   ; qtot 0.744278
 4209         oh    143    ccc     O4   4209 -0.56822625  16.000000   ; qtot -0.096533
 4210         ho    143    ccc    H16   4210 0.4186155   1.008000   ; qtot 0.429542
 4211         os    143    ccc     O5   4211 -0.42966500  16.000000   ; qtot -0.000123
; residue  144 ccc rtp ccc q 0.0
 4212         c3    144    ccc     C1   4212 0.50749700  12.010000   ; qtot 0.507374
 4213         h1    144    ccc     H1   4213 -0.02808400   1.008000   ; qtot 0.479290
 4214         h1    144    ccc     H2   4214 -0.02808400   1.008000   ; qtot 0.451206
 4215         c3    144    ccc     C2   4215 -0.15486000  12.010000   ; qtot 0.296346
 4216         hc    144    ccc     H3   4216 0.10266400   1.008000   ; qtot 0.399010
 4217         hc    144    ccc     H4   4217 0.10266400   1.008000   ; qtot 0.501674
 4218         c3    144    ccc     C3   4218 -0.15693500  12.010000   ; qtot 0.344739
 4219         h1    144    ccc     H5   4219 0.08499200   1.008000   ; qtot 0.429731
 4220         h1    144    ccc     H6   4220 0.08499200   1.008000   ; qtot 0.514723
 4221         n3    144    ccc     N1   4221 -0.29948700  14.010000   ; qtot 0.215236
 4222         c3    144    ccc     C4   4222 -0.01321200  12.010000   ; qtot 0.202024
 4223         h1    144    ccc     H7   4223 0.08172200   1.008000   ; qtot 0.283746
 4224         h1    144    ccc     H8   4224 0.08172200   1.008000   ; qtot 0.365468
 4225         c3    144    ccc     C5   4225 -0.22180000  12.010000   ; qtot 0.143668
 4226         hc    144    ccc     H9   4226 0.09671800   1.008000   ; qtot 0.240386
 4227         hc    144    ccc    H10   4227 0.09671800   1.008000   ; qtot 0.337104
 4228          c    144    ccc     C6   4228 0.526324  12.010000   ; qtot 1.333631
 4229          o    144    ccc     O1   4229 -0.39142825  16.000000   ; qtot 0.637125
 4230         oh    144    ccc     O2   4230 -0.56822625  16.000000   ; qtot -0.203686
 4231         ho    144    ccc    H11   4231 0.4186155   1.008000   ; qtot 0.322389
 4232         c3    144    ccc     C7   4232 -0.01321200  12.010000   ; qtot 0.309177
 4233         h1    144    ccc    H12   4233 0.08172200   1.008000   ; qtot 0.390899
 4234         h1    144    ccc    H13   4234 0.08172200   1.008000   ; qtot 0.472621
 4235         c3    144    ccc     C8   4235 -0.22180000  12.010000   ; qtot 0.250821
 4236         hc    144    ccc    H14   4236 0.09671800   1.008000   ; qtot 0.347539
 4237         hc    144    ccc    H15   4237 0.09671800   1.008000   ; qtot 0.444257
 4238          c    144    ccc     C9   4238 0.526324  12.010000   ; qtot 1.440784
 4239          o    144    ccc     O3   4239 -0.39142825  16.000000   ; qtot 0.744278
 4240         oh    144    ccc     O4   4240 -0.56822625  16.000000   ; qtot -0.096533
 4241         ho    144    ccc    H16   4241 0.4186155   1.008000   ; qtot 0.429542
 4242         os    144    ccc     O5   4242 -0.42966500  16.000000   ; qtot -0.000123
; residue  145 ccc rtp ccc q 0.0
 4243         c3    145    ccc     C1   4243 0.50749700  12.010000   ; qtot 0.507374
 4244         h1    145    ccc     H1   4244 -0.02808400   1.008000   ; qtot 0.479290
 4245         h1    145    ccc     H2   4245 -0.02808400   1.008000   ; qtot 0.451206
 4246         c3    145    ccc     C2   4246 -0.15486000  12.010000   ; qtot 0.296346
 4247         hc    145    ccc     H3   4247 0.10266400   1.008000   ; qtot 0.399010
 4248         hc    145    ccc     H4   4248 0.10266400   1.008000   ; qtot 0.501674
 4249         c3    145    ccc     C3   4249 -0.15693500  12.010000   ; qtot 0.344739
 4250         h1    145    ccc     H5   4250 0.08499200   1.008000   ; qtot 0.429731
 4251         h1    145    ccc     H6   4251 0.08499200   1.008000   ; qtot 0.514723
 4252         n3    145    ccc     N1   4252 -0.29948700  14.010000   ; qtot 0.215236
 4253         c3    145    ccc     C4   4253 -0.01321200  12.010000   ; qtot 0.202024
 4254         h1    145    ccc     H7   4254 0.08172200   1.008000   ; qtot 0.283746
 4255         h1    145    ccc     H8   4255 0.08172200   1.008000   ; qtot 0.365468
 4256         c3    145    ccc     C5   4256 -0.22180000  12.010000   ; qtot 0.143668
 4257         hc    145    ccc     H9   4257 0.09671800   1.008000   ; qtot 0.240386
 4258         hc    145    ccc    H10   4258 0.09671800   1.008000   ; qtot 0.337104
 4259          c    145    ccc     C6   4259 0.526324  12.010000   ; qtot 1.333631
 4260          o    145    ccc     O1   4260 -0.39142825  16.000000   ; qtot 0.637125
 4261         oh    145    ccc     O2   4261 -0.56822625  16.000000   ; qtot -0.203686
 4262         ho    145    ccc    H11   4262 0.4186155   1.008000   ; qtot 0.322389
 4263         c3    145    ccc     C7   4263 -0.01321200  12.010000   ; qtot 0.309177
 4264         h1    145    ccc    H12   4264 0.08172200   1.008000   ; qtot 0.390899
 4265         h1    145    ccc    H13   4265 0.08172200   1.008000   ; qtot 0.472621
 4266         c3    145    ccc     C8   4266 -0.22180000  12.010000   ; qtot 0.250821
 4267         hc    145    ccc    H14   4267 0.09671800   1.008000   ; qtot 0.347539
 4268         hc    145    ccc    H15   4268 0.09671800   1.008000   ; qtot 0.444257
 4269          c    145    ccc     C9   4269 0.526324  12.010000   ; qtot 1.440784
 4270          o    145    ccc     O3   4270 -0.39142825  16.000000   ; qtot 0.744278
 4271         oh    145    ccc     O4   4271 -0.56822625  16.000000   ; qtot -0.096533
 4272         ho    145    ccc    H16   4272 0.4186155   1.008000   ; qtot 0.429542
 4273         os    145    ccc     O5   4273 -0.42966500  16.000000   ; qtot -0.000123
; residue  146 ccc rtp ccc q 0.0
 4274         c3    146    ccc     C1   4274 0.50749700  12.010000   ; qtot 0.507374
 4275         h1    146    ccc     H1   4275 -0.02808400   1.008000   ; qtot 0.479290
 4276         h1    146    ccc     H2   4276 -0.02808400   1.008000   ; qtot 0.451206
 4277         c3    146    ccc     C2   4277 -0.15486000  12.010000   ; qtot 0.296346
 4278         hc    146    ccc     H3   4278 0.10266400   1.008000   ; qtot 0.399010
 4279         hc    146    ccc     H4   4279 0.10266400   1.008000   ; qtot 0.501674
 4280         c3    146    ccc     C3   4280 -0.15693500  12.010000   ; qtot 0.344739
 4281         h1    146    ccc     H5   4281 0.08499200   1.008000   ; qtot 0.429731
 4282         h1    146    ccc     H6   4282 0.08499200   1.008000   ; qtot 0.514723
 4283         n3    146    ccc     N1   4283 -0.29948700  14.010000   ; qtot 0.215236
 4284         c3    146    ccc     C4   4284 -0.01321200  12.010000   ; qtot 0.202024
 4285         h1    146    ccc     H7   4285 0.08172200   1.008000   ; qtot 0.283746
 4286         h1    146    ccc     H8   4286 0.08172200   1.008000   ; qtot 0.365468
 4287         c3    146    ccc     C5   4287 -0.22180000  12.010000   ; qtot 0.143668
 4288         hc    146    ccc     H9   4288 0.09671800   1.008000   ; qtot 0.240386
 4289         hc    146    ccc    H10   4289 0.09671800   1.008000   ; qtot 0.337104
 4290          c    146    ccc     C6   4290 0.526324  12.010000   ; qtot 1.333631
 4291          o    146    ccc     O1   4291 -0.39142825  16.000000   ; qtot 0.637125
 4292         oh    146    ccc     O2   4292 -0.56822625  16.000000   ; qtot -0.203686
 4293         ho    146    ccc    H11   4293 0.4186155   1.008000   ; qtot 0.322389
 4294         c3    146    ccc     C7   4294 -0.01321200  12.010000   ; qtot 0.309177
 4295         h1    146    ccc    H12   4295 0.08172200   1.008000   ; qtot 0.390899
 4296         h1    146    ccc    H13   4296 0.08172200   1.008000   ; qtot 0.472621
 4297         c3    146    ccc     C8   4297 -0.22180000  12.010000   ; qtot 0.250821
 4298         hc    146    ccc    H14   4298 0.09671800   1.008000   ; qtot 0.347539
 4299         hc    146    ccc    H15   4299 0.09671800   1.008000   ; qtot 0.444257
 4300          c    146    ccc     C9   4300 0.526324  12.010000   ; qtot 1.440784
 4301          o    146    ccc     O3   4301 -0.39142825  16.000000   ; qtot 0.744278
 4302         oh    146    ccc     O4   4302 -0.56822625  16.000000   ; qtot -0.096533
 4303         ho    146    ccc    H16   4303 0.4186155   1.008000   ; qtot 0.429542
 4304         os    146    ccc     O5   4304 -0.42966500  16.000000   ; qtot -0.000123
; residue  147 ccc rtp ccc q 0.0
 4305         c3    147    ccc     C1   4305 0.50749700  12.010000   ; qtot 0.507374
 4306         h1    147    ccc     H1   4306 -0.02808400   1.008000   ; qtot 0.479290
 4307         h1    147    ccc     H2   4307 -0.02808400   1.008000   ; qtot 0.451206
 4308         c3    147    ccc     C2   4308 -0.15486000  12.010000   ; qtot 0.296346
 4309         hc    147    ccc     H3   4309 0.10266400   1.008000   ; qtot 0.399010
 4310         hc    147    ccc     H4   4310 0.10266400   1.008000   ; qtot 0.501674
 4311         c3    147    ccc     C3   4311 -0.15693500  12.010000   ; qtot 0.344739
 4312         h1    147    ccc     H5   4312 0.08499200   1.008000   ; qtot 0.429731
 4313         h1    147    ccc     H6   4313 0.08499200   1.008000   ; qtot 0.514723
 4314         n3    147    ccc     N1   4314 -0.29948700  14.010000   ; qtot 0.215236
 4315         c3    147    ccc     C4   4315 -0.01321200  12.010000   ; qtot 0.202024
 4316         h1    147    ccc     H7   4316 0.08172200   1.008000   ; qtot 0.283746
 4317         h1    147    ccc     H8   4317 0.08172200   1.008000   ; qtot 0.365468
 4318         c3    147    ccc     C5   4318 -0.22180000  12.010000   ; qtot 0.143668
 4319         hc    147    ccc     H9   4319 0.09671800   1.008000   ; qtot 0.240386
 4320         hc    147    ccc    H10   4320 0.09671800   1.008000   ; qtot 0.337104
 4321          c    147    ccc     C6   4321 0.526324  12.010000   ; qtot 1.333631
 4322          o    147    ccc     O1   4322 -0.39142825  16.000000   ; qtot 0.637125
 4323         oh    147    ccc     O2   4323 -0.56822625  16.000000   ; qtot -0.203686
 4324         ho    147    ccc    H11   4324 0.4186155   1.008000   ; qtot 0.322389
 4325         c3    147    ccc     C7   4325 -0.01321200  12.010000   ; qtot 0.309177
 4326         h1    147    ccc    H12   4326 0.08172200   1.008000   ; qtot 0.390899
 4327         h1    147    ccc    H13   4327 0.08172200   1.008000   ; qtot 0.472621
 4328         c3    147    ccc     C8   4328 -0.22180000  12.010000   ; qtot 0.250821
 4329         hc    147    ccc    H14   4329 0.09671800   1.008000   ; qtot 0.347539
 4330         hc    147    ccc    H15   4330 0.09671800   1.008000   ; qtot 0.444257
 4331          c    147    ccc     C9   4331 0.526324  12.010000   ; qtot 1.440784
 4332          o    147    ccc     O3   4332 -0.39142825  16.000000   ; qtot 0.744278
 4333         oh    147    ccc     O4   4333 -0.56822625  16.000000   ; qtot -0.096533
 4334         ho    147    ccc    H16   4334 0.4186155   1.008000   ; qtot 0.429542
 4335         os    147    ccc     O5   4335 -0.42966500  16.000000   ; qtot -0.000123
; residue  148 ccc rtp ccc q 0.0
 4336         c3    148    ccc     C1   4336 0.50749700  12.010000   ; qtot 0.507374
 4337         h1    148    ccc     H1   4337 -0.02808400   1.008000   ; qtot 0.479290
 4338         h1    148    ccc     H2   4338 -0.02808400   1.008000   ; qtot 0.451206
 4339         c3    148    ccc     C2   4339 -0.15486000  12.010000   ; qtot 0.296346
 4340         hc    148    ccc     H3   4340 0.10266400   1.008000   ; qtot 0.399010
 4341         hc    148    ccc     H4   4341 0.10266400   1.008000   ; qtot 0.501674
 4342         c3    148    ccc     C3   4342 -0.15693500  12.010000   ; qtot 0.344739
 4343         h1    148    ccc     H5   4343 0.08499200   1.008000   ; qtot 0.429731
 4344         h1    148    ccc     H6   4344 0.08499200   1.008000   ; qtot 0.514723
 4345         n3    148    ccc     N1   4345 -0.29948700  14.010000   ; qtot 0.215236
 4346         c3    148    ccc     C4   4346 -0.01321200  12.010000   ; qtot 0.202024
 4347         h1    148    ccc     H7   4347 0.08172200   1.008000   ; qtot 0.283746
 4348         h1    148    ccc     H8   4348 0.08172200   1.008000   ; qtot 0.365468
 4349         c3    148    ccc     C5   4349 -0.22180000  12.010000   ; qtot 0.143668
 4350         hc    148    ccc     H9   4350 0.09671800   1.008000   ; qtot 0.240386
 4351         hc    148    ccc    H10   4351 0.09671800   1.008000   ; qtot 0.337104
 4352          c    148    ccc     C6   4352 0.526324  12.010000   ; qtot 1.333631
 4353          o    148    ccc     O1   4353 -0.39142825  16.000000   ; qtot 0.637125
 4354         oh    148    ccc     O2   4354 -0.56822625  16.000000   ; qtot -0.203686
 4355         ho    148    ccc    H11   4355 0.4186155   1.008000   ; qtot 0.322389
 4356         c3    148    ccc     C7   4356 -0.01321200  12.010000   ; qtot 0.309177
 4357         h1    148    ccc    H12   4357 0.08172200   1.008000   ; qtot 0.390899
 4358         h1    148    ccc    H13   4358 0.08172200   1.008000   ; qtot 0.472621
 4359         c3    148    ccc     C8   4359 -0.22180000  12.010000   ; qtot 0.250821
 4360         hc    148    ccc    H14   4360 0.09671800   1.008000   ; qtot 0.347539
 4361         hc    148    ccc    H15   4361 0.09671800   1.008000   ; qtot 0.444257
 4362          c    148    ccc     C9   4362 0.526324  12.010000   ; qtot 1.440784
 4363          o    148    ccc     O3   4363 -0.39142825  16.000000   ; qtot 0.744278
 4364         oh    148    ccc     O4   4364 -0.56822625  16.000000   ; qtot -0.096533
 4365         ho    148    ccc    H16   4365 0.4186155   1.008000   ; qtot 0.429542
 4366         os    148    ccc     O5   4366 -0.42966500  16.000000   ; qtot -0.000123
; residue  149 ccc rtp ccc q 0.0
 4367         c3    149    ccc     C1   4367 0.50749700  12.010000   ; qtot 0.507374
 4368         h1    149    ccc     H1   4368 -0.02808400   1.008000   ; qtot 0.479290
 4369         h1    149    ccc     H2   4369 -0.02808400   1.008000   ; qtot 0.451206
 4370         c3    149    ccc     C2   4370 -0.15486000  12.010000   ; qtot 0.296346
 4371         hc    149    ccc     H3   4371 0.10266400   1.008000   ; qtot 0.399010
 4372         hc    149    ccc     H4   4372 0.10266400   1.008000   ; qtot 0.501674
 4373         c3    149    ccc     C3   4373 -0.15693500  12.010000   ; qtot 0.344739
 4374         h1    149    ccc     H5   4374 0.08499200   1.008000   ; qtot 0.429731
 4375         h1    149    ccc     H6   4375 0.08499200   1.008000   ; qtot 0.514723
 4376         n3    149    ccc     N1   4376 -0.29948700  14.010000   ; qtot 0.215236
 4377         c3    149    ccc     C4   4377 -0.01321200  12.010000   ; qtot 0.202024
 4378         h1    149    ccc     H7   4378 0.08172200   1.008000   ; qtot 0.283746
 4379         h1    149    ccc     H8   4379 0.08172200   1.008000   ; qtot 0.365468
 4380         c3    149    ccc     C5   4380 -0.22180000  12.010000   ; qtot 0.143668
 4381         hc    149    ccc     H9   4381 0.09671800   1.008000   ; qtot 0.240386
 4382         hc    149    ccc    H10   4382 0.09671800   1.008000   ; qtot 0.337104
 4383          c    149    ccc     C6   4383 0.526324  12.010000   ; qtot 1.333631
 4384          o    149    ccc     O1   4384 -0.39142825  16.000000   ; qtot 0.637125
 4385         oh    149    ccc     O2   4385 -0.56822625  16.000000   ; qtot -0.203686
 4386         ho    149    ccc    H11   4386 0.4186155   1.008000   ; qtot 0.322389
 4387         c3    149    ccc     C7   4387 -0.01321200  12.010000   ; qtot 0.309177
 4388         h1    149    ccc    H12   4388 0.08172200   1.008000   ; qtot 0.390899
 4389         h1    149    ccc    H13   4389 0.08172200   1.008000   ; qtot 0.472621
 4390         c3    149    ccc     C8   4390 -0.22180000  12.010000   ; qtot 0.250821
 4391         hc    149    ccc    H14   4391 0.09671800   1.008000   ; qtot 0.347539
 4392         hc    149    ccc    H15   4392 0.09671800   1.008000   ; qtot 0.444257
 4393          c    149    ccc     C9   4393 0.526324  12.010000   ; qtot 1.440784
 4394          o    149    ccc     O3   4394 -0.39142825  16.000000   ; qtot 0.744278
 4395         oh    149    ccc     O4   4395 -0.56822625  16.000000   ; qtot -0.096533
 4396         ho    149    ccc    H16   4396 0.4186155   1.008000   ; qtot 0.429542
 4397         os    149    ccc     O5   4397 -0.42966500  16.000000   ; qtot -0.000123
; residue  150 ccc rtp ccc q 0.0
 4398         c3    150    ccc     C1   4398 0.50749700  12.010000   ; qtot 0.507374
 4399         h1    150    ccc     H1   4399 -0.02808400   1.008000   ; qtot 0.479290
 4400         h1    150    ccc     H2   4400 -0.02808400   1.008000   ; qtot 0.451206
 4401         c3    150    ccc     C2   4401 -0.15486000  12.010000   ; qtot 0.296346
 4402         hc    150    ccc     H3   4402 0.10266400   1.008000   ; qtot 0.399010
 4403         hc    150    ccc     H4   4403 0.10266400   1.008000   ; qtot 0.501674
 4404         c3    150    ccc     C3   4404 -0.15693500  12.010000   ; qtot 0.344739
 4405         h1    150    ccc     H5   4405 0.08499200   1.008000   ; qtot 0.429731
 4406         h1    150    ccc     H6   4406 0.08499200   1.008000   ; qtot 0.514723
 4407         n3    150    ccc     N1   4407 -0.29948700  14.010000   ; qtot 0.215236
 4408         c3    150    ccc     C4   4408 -0.01321200  12.010000   ; qtot 0.202024
 4409         h1    150    ccc     H7   4409 0.08172200   1.008000   ; qtot 0.283746
 4410         h1    150    ccc     H8   4410 0.08172200   1.008000   ; qtot 0.365468
 4411         c3    150    ccc     C5   4411 -0.22180000  12.010000   ; qtot 0.143668
 4412         hc    150    ccc     H9   4412 0.09671800   1.008000   ; qtot 0.240386
 4413         hc    150    ccc    H10   4413 0.09671800   1.008000   ; qtot 0.337104
 4414          c    150    ccc     C6   4414 0.526324  12.010000   ; qtot 1.333631
 4415          o    150    ccc     O1   4415 -0.39142825  16.000000   ; qtot 0.637125
 4416         oh    150    ccc     O2   4416 -0.56822625  16.000000   ; qtot -0.203686
 4417         ho    150    ccc    H11   4417 0.4186155   1.008000   ; qtot 0.322389
 4418         c3    150    ccc     C7   4418 -0.01321200  12.010000   ; qtot 0.309177
 4419         h1    150    ccc    H12   4419 0.08172200   1.008000   ; qtot 0.390899
 4420         h1    150    ccc    H13   4420 0.08172200   1.008000   ; qtot 0.472621
 4421         c3    150    ccc     C8   4421 -0.22180000  12.010000   ; qtot 0.250821
 4422         hc    150    ccc    H14   4422 0.09671800   1.008000   ; qtot 0.347539
 4423         hc    150    ccc    H15   4423 0.09671800   1.008000   ; qtot 0.444257
 4424          c    150    ccc     C9   4424 0.526324  12.010000   ; qtot 1.440784
 4425          o    150    ccc     O3   4425 -0.39142825  16.000000   ; qtot 0.744278
 4426         oh    150    ccc     O4   4426 -0.56822625  16.000000   ; qtot -0.096533
 4427         ho    150    ccc    H16   4427 0.4186155   1.008000   ; qtot 0.429542
 4428         os    150    ccc     O5   4428 -0.42966500  16.000000   ; qtot -0.000123
; residue  151 ccc rtp ccc q 0.0
 4429         c3    151    ccc     C1   4429 0.50749700  12.010000   ; qtot 0.507374
 4430         h1    151    ccc     H1   4430 -0.02808400   1.008000   ; qtot 0.479290
 4431         h1    151    ccc     H2   4431 -0.02808400   1.008000   ; qtot 0.451206
 4432         c3    151    ccc     C2   4432 -0.15486000  12.010000   ; qtot 0.296346
 4433         hc    151    ccc     H3   4433 0.10266400   1.008000   ; qtot 0.399010
 4434         hc    151    ccc     H4   4434 0.10266400   1.008000   ; qtot 0.501674
 4435         c3    151    ccc     C3   4435 -0.15693500  12.010000   ; qtot 0.344739
 4436         h1    151    ccc     H5   4436 0.08499200   1.008000   ; qtot 0.429731
 4437         h1    151    ccc     H6   4437 0.08499200   1.008000   ; qtot 0.514723
 4438         n3    151    ccc     N1   4438 -0.29948700  14.010000   ; qtot 0.215236
 4439         c3    151    ccc     C4   4439 -0.01321200  12.010000   ; qtot 0.202024
 4440         h1    151    ccc     H7   4440 0.08172200   1.008000   ; qtot 0.283746
 4441         h1    151    ccc     H8   4441 0.08172200   1.008000   ; qtot 0.365468
 4442         c3    151    ccc     C5   4442 -0.22180000  12.010000   ; qtot 0.143668
 4443         hc    151    ccc     H9   4443 0.09671800   1.008000   ; qtot 0.240386
 4444         hc    151    ccc    H10   4444 0.09671800   1.008000   ; qtot 0.337104
 4445          c    151    ccc     C6   4445 0.526324  12.010000   ; qtot 1.333631
 4446          o    151    ccc     O1   4446 -0.39142825  16.000000   ; qtot 0.637125
 4447         oh    151    ccc     O2   4447 -0.56822625  16.000000   ; qtot -0.203686
 4448         ho    151    ccc    H11   4448 0.4186155   1.008000   ; qtot 0.322389
 4449         c3    151    ccc     C7   4449 -0.01321200  12.010000   ; qtot 0.309177
 4450         h1    151    ccc    H12   4450 0.08172200   1.008000   ; qtot 0.390899
 4451         h1    151    ccc    H13   4451 0.08172200   1.008000   ; qtot 0.472621
 4452         c3    151    ccc     C8   4452 -0.22180000  12.010000   ; qtot 0.250821
 4453         hc    151    ccc    H14   4453 0.09671800   1.008000   ; qtot 0.347539
 4454         hc    151    ccc    H15   4454 0.09671800   1.008000   ; qtot 0.444257
 4455          c    151    ccc     C9   4455 0.526324  12.010000   ; qtot 1.440784
 4456          o    151    ccc     O3   4456 -0.39142825  16.000000   ; qtot 0.744278
 4457         oh    151    ccc     O4   4457 -0.56822625  16.000000   ; qtot -0.096533
 4458         ho    151    ccc    H16   4458 0.4186155   1.008000   ; qtot 0.429542
 4459         os    151    ccc     O5   4459 -0.42966500  16.000000   ; qtot -0.000123
; residue  152 ccc rtp ccc q 0.0
 4460         c3    152    ccc     C1   4460 0.50749700  12.010000   ; qtot 0.507374
 4461         h1    152    ccc     H1   4461 -0.02808400   1.008000   ; qtot 0.479290
 4462         h1    152    ccc     H2   4462 -0.02808400   1.008000   ; qtot 0.451206
 4463         c3    152    ccc     C2   4463 -0.15486000  12.010000   ; qtot 0.296346
 4464         hc    152    ccc     H3   4464 0.10266400   1.008000   ; qtot 0.399010
 4465         hc    152    ccc     H4   4465 0.10266400   1.008000   ; qtot 0.501674
 4466         c3    152    ccc     C3   4466 -0.15693500  12.010000   ; qtot 0.344739
 4467         h1    152    ccc     H5   4467 0.08499200   1.008000   ; qtot 0.429731
 4468         h1    152    ccc     H6   4468 0.08499200   1.008000   ; qtot 0.514723
 4469         n3    152    ccc     N1   4469 -0.29948700  14.010000   ; qtot 0.215236
 4470         c3    152    ccc     C4   4470 -0.01321200  12.010000   ; qtot 0.202024
 4471         h1    152    ccc     H7   4471 0.08172200   1.008000   ; qtot 0.283746
 4472         h1    152    ccc     H8   4472 0.08172200   1.008000   ; qtot 0.365468
 4473         c3    152    ccc     C5   4473 -0.22180000  12.010000   ; qtot 0.143668
 4474         hc    152    ccc     H9   4474 0.09671800   1.008000   ; qtot 0.240386
 4475         hc    152    ccc    H10   4475 0.09671800   1.008000   ; qtot 0.337104
 4476          c    152    ccc     C6   4476 0.526324  12.010000   ; qtot 1.333631
 4477          o    152    ccc     O1   4477 -0.39142825  16.000000   ; qtot 0.637125
 4478         oh    152    ccc     O2   4478 -0.56822625  16.000000   ; qtot -0.203686
 4479         ho    152    ccc    H11   4479 0.4186155   1.008000   ; qtot 0.322389
 4480         c3    152    ccc     C7   4480 -0.01321200  12.010000   ; qtot 0.309177
 4481         h1    152    ccc    H12   4481 0.08172200   1.008000   ; qtot 0.390899
 4482         h1    152    ccc    H13   4482 0.08172200   1.008000   ; qtot 0.472621
 4483         c3    152    ccc     C8   4483 -0.22180000  12.010000   ; qtot 0.250821
 4484         hc    152    ccc    H14   4484 0.09671800   1.008000   ; qtot 0.347539
 4485         hc    152    ccc    H15   4485 0.09671800   1.008000   ; qtot 0.444257
 4486          c    152    ccc     C9   4486 0.526324  12.010000   ; qtot 1.440784
 4487          o    152    ccc     O3   4487 -0.39142825  16.000000   ; qtot 0.744278
 4488         oh    152    ccc     O4   4488 -0.56822625  16.000000   ; qtot -0.096533
 4489         ho    152    ccc    H16   4489 0.4186155   1.008000   ; qtot 0.429542
 4490         os    152    ccc     O5   4490 -0.42966500  16.000000   ; qtot -0.000123
; residue  153 ccc rtp ccc q 0.0
 4491         c3    153    ccc     C1   4491 0.50749700  12.010000   ; qtot 0.507374
 4492         h1    153    ccc     H1   4492 -0.02808400   1.008000   ; qtot 0.479290
 4493         h1    153    ccc     H2   4493 -0.02808400   1.008000   ; qtot 0.451206
 4494         c3    153    ccc     C2   4494 -0.15486000  12.010000   ; qtot 0.296346
 4495         hc    153    ccc     H3   4495 0.10266400   1.008000   ; qtot 0.399010
 4496         hc    153    ccc     H4   4496 0.10266400   1.008000   ; qtot 0.501674
 4497         c3    153    ccc     C3   4497 -0.15693500  12.010000   ; qtot 0.344739
 4498         h1    153    ccc     H5   4498 0.08499200   1.008000   ; qtot 0.429731
 4499         h1    153    ccc     H6   4499 0.08499200   1.008000   ; qtot 0.514723
 4500         n3    153    ccc     N1   4500 -0.29948700  14.010000   ; qtot 0.215236
 4501         c3    153    ccc     C4   4501 -0.01321200  12.010000   ; qtot 0.202024
 4502         h1    153    ccc     H7   4502 0.08172200   1.008000   ; qtot 0.283746
 4503         h1    153    ccc     H8   4503 0.08172200   1.008000   ; qtot 0.365468
 4504         c3    153    ccc     C5   4504 -0.22180000  12.010000   ; qtot 0.143668
 4505         hc    153    ccc     H9   4505 0.09671800   1.008000   ; qtot 0.240386
 4506         hc    153    ccc    H10   4506 0.09671800   1.008000   ; qtot 0.337104
 4507          c    153    ccc     C6   4507 0.526324  12.010000   ; qtot 1.333631
 4508          o    153    ccc     O1   4508 -0.39142825  16.000000   ; qtot 0.637125
 4509         oh    153    ccc     O2   4509 -0.56822625  16.000000   ; qtot -0.203686
 4510         ho    153    ccc    H11   4510 0.4186155   1.008000   ; qtot 0.322389
 4511         c3    153    ccc     C7   4511 -0.01321200  12.010000   ; qtot 0.309177
 4512         h1    153    ccc    H12   4512 0.08172200   1.008000   ; qtot 0.390899
 4513         h1    153    ccc    H13   4513 0.08172200   1.008000   ; qtot 0.472621
 4514         c3    153    ccc     C8   4514 -0.22180000  12.010000   ; qtot 0.250821
 4515         hc    153    ccc    H14   4515 0.09671800   1.008000   ; qtot 0.347539
 4516         hc    153    ccc    H15   4516 0.09671800   1.008000   ; qtot 0.444257
 4517          c    153    ccc     C9   4517 0.526324  12.010000   ; qtot 1.440784
 4518          o    153    ccc     O3   4518 -0.39142825  16.000000   ; qtot 0.744278
 4519         oh    153    ccc     O4   4519 -0.56822625  16.000000   ; qtot -0.096533
 4520         ho    153    ccc    H16   4520 0.4186155   1.008000   ; qtot 0.429542
 4521         os    153    ccc     O5   4521 -0.42966500  16.000000   ; qtot -0.000123
; residue  154 ccc rtp ccc q 0.0
 4522         c3    154    ccc     C1   4522 0.50749700  12.010000   ; qtot 0.507374
 4523         h1    154    ccc     H1   4523 -0.02808400   1.008000   ; qtot 0.479290
 4524         h1    154    ccc     H2   4524 -0.02808400   1.008000   ; qtot 0.451206
 4525         c3    154    ccc     C2   4525 -0.15486000  12.010000   ; qtot 0.296346
 4526         hc    154    ccc     H3   4526 0.10266400   1.008000   ; qtot 0.399010
 4527         hc    154    ccc     H4   4527 0.10266400   1.008000   ; qtot 0.501674
 4528         c3    154    ccc     C3   4528 -0.15693500  12.010000   ; qtot 0.344739
 4529         h1    154    ccc     H5   4529 0.08499200   1.008000   ; qtot 0.429731
 4530         h1    154    ccc     H6   4530 0.08499200   1.008000   ; qtot 0.514723
 4531         n3    154    ccc     N1   4531 -0.29948700  14.010000   ; qtot 0.215236
 4532         c3    154    ccc     C4   4532 -0.01321200  12.010000   ; qtot 0.202024
 4533         h1    154    ccc     H7   4533 0.08172200   1.008000   ; qtot 0.283746
 4534         h1    154    ccc     H8   4534 0.08172200   1.008000   ; qtot 0.365468
 4535         c3    154    ccc     C5   4535 -0.22180000  12.010000   ; qtot 0.143668
 4536         hc    154    ccc     H9   4536 0.09671800   1.008000   ; qtot 0.240386
 4537         hc    154    ccc    H10   4537 0.09671800   1.008000   ; qtot 0.337104
 4538          c    154    ccc     C6   4538 0.526324  12.010000   ; qtot 1.333631
 4539          o    154    ccc     O1   4539 -0.39142825  16.000000   ; qtot 0.637125
 4540         oh    154    ccc     O2   4540 -0.56822625  16.000000   ; qtot -0.203686
 4541         ho    154    ccc    H11   4541 0.4186155   1.008000   ; qtot 0.322389
 4542         c3    154    ccc     C7   4542 -0.01321200  12.010000   ; qtot 0.309177
 4543         h1    154    ccc    H12   4543 0.08172200   1.008000   ; qtot 0.390899
 4544         h1    154    ccc    H13   4544 0.08172200   1.008000   ; qtot 0.472621
 4545         c3    154    ccc     C8   4545 -0.22180000  12.010000   ; qtot 0.250821
 4546         hc    154    ccc    H14   4546 0.09671800   1.008000   ; qtot 0.347539
 4547         hc    154    ccc    H15   4547 0.09671800   1.008000   ; qtot 0.444257
 4548          c    154    ccc     C9   4548 0.526324  12.010000   ; qtot 1.440784
 4549          o    154    ccc     O3   4549 -0.39142825  16.000000   ; qtot 0.744278
 4550         oh    154    ccc     O4   4550 -0.56822625  16.000000   ; qtot -0.096533
 4551         ho    154    ccc    H16   4551 0.4186155   1.008000   ; qtot 0.429542
 4552         os    154    ccc     O5   4552 -0.42966500  16.000000   ; qtot -0.000123
; residue  155 ccc rtp ccc q 0.0
 4553         c3    155    ccc     C1   4553 0.50749700  12.010000   ; qtot 0.507374
 4554         h1    155    ccc     H1   4554 -0.02808400   1.008000   ; qtot 0.479290
 4555         h1    155    ccc     H2   4555 -0.02808400   1.008000   ; qtot 0.451206
 4556         c3    155    ccc     C2   4556 -0.15486000  12.010000   ; qtot 0.296346
 4557         hc    155    ccc     H3   4557 0.10266400   1.008000   ; qtot 0.399010
 4558         hc    155    ccc     H4   4558 0.10266400   1.008000   ; qtot 0.501674
 4559         c3    155    ccc     C3   4559 -0.15693500  12.010000   ; qtot 0.344739
 4560         h1    155    ccc     H5   4560 0.08499200   1.008000   ; qtot 0.429731
 4561         h1    155    ccc     H6   4561 0.08499200   1.008000   ; qtot 0.514723
 4562         n3    155    ccc     N1   4562 -0.29948700  14.010000   ; qtot 0.215236
 4563         c3    155    ccc     C4   4563 -0.01321200  12.010000   ; qtot 0.202024
 4564         h1    155    ccc     H7   4564 0.08172200   1.008000   ; qtot 0.283746
 4565         h1    155    ccc     H8   4565 0.08172200   1.008000   ; qtot 0.365468
 4566         c3    155    ccc     C5   4566 -0.22180000  12.010000   ; qtot 0.143668
 4567         hc    155    ccc     H9   4567 0.09671800   1.008000   ; qtot 0.240386
 4568         hc    155    ccc    H10   4568 0.09671800   1.008000   ; qtot 0.337104
 4569          c    155    ccc     C6   4569 0.526324  12.010000   ; qtot 1.333631
 4570          o    155    ccc     O1   4570 -0.39142825  16.000000   ; qtot 0.637125
 4571         oh    155    ccc     O2   4571 -0.56822625  16.000000   ; qtot -0.203686
 4572         ho    155    ccc    H11   4572 0.4186155   1.008000   ; qtot 0.322389
 4573         c3    155    ccc     C7   4573 -0.01321200  12.010000   ; qtot 0.309177
 4574         h1    155    ccc    H12   4574 0.08172200   1.008000   ; qtot 0.390899
 4575         h1    155    ccc    H13   4575 0.08172200   1.008000   ; qtot 0.472621
 4576         c3    155    ccc     C8   4576 -0.22180000  12.010000   ; qtot 0.250821
 4577         hc    155    ccc    H14   4577 0.09671800   1.008000   ; qtot 0.347539
 4578         hc    155    ccc    H15   4578 0.09671800   1.008000   ; qtot 0.444257
 4579          c    155    ccc     C9   4579 0.526324  12.010000   ; qtot 1.440784
 4580          o    155    ccc     O3   4580 -0.39142825  16.000000   ; qtot 0.744278
 4581         oh    155    ccc     O4   4581 -0.56822625  16.000000   ; qtot -0.096533
 4582         ho    155    ccc    H16   4582 0.4186155   1.008000   ; qtot 0.429542
 4583         os    155    ccc     O5   4583 -0.42966500  16.000000   ; qtot -0.000123
; residue  156 ccc rtp ccc q 0.0
 4584         c3    156    ccc     C1   4584 0.50749700  12.010000   ; qtot 0.507374
 4585         h1    156    ccc     H1   4585 -0.02808400   1.008000   ; qtot 0.479290
 4586         h1    156    ccc     H2   4586 -0.02808400   1.008000   ; qtot 0.451206
 4587         c3    156    ccc     C2   4587 -0.15486000  12.010000   ; qtot 0.296346
 4588         hc    156    ccc     H3   4588 0.10266400   1.008000   ; qtot 0.399010
 4589         hc    156    ccc     H4   4589 0.10266400   1.008000   ; qtot 0.501674
 4590         c3    156    ccc     C3   4590 -0.15693500  12.010000   ; qtot 0.344739
 4591         h1    156    ccc     H5   4591 0.08499200   1.008000   ; qtot 0.429731
 4592         h1    156    ccc     H6   4592 0.08499200   1.008000   ; qtot 0.514723
 4593         n3    156    ccc     N1   4593 -0.29948700  14.010000   ; qtot 0.215236
 4594         c3    156    ccc     C4   4594 -0.01321200  12.010000   ; qtot 0.202024
 4595         h1    156    ccc     H7   4595 0.08172200   1.008000   ; qtot 0.283746
 4596         h1    156    ccc     H8   4596 0.08172200   1.008000   ; qtot 0.365468
 4597         c3    156    ccc     C5   4597 -0.22180000  12.010000   ; qtot 0.143668
 4598         hc    156    ccc     H9   4598 0.09671800   1.008000   ; qtot 0.240386
 4599         hc    156    ccc    H10   4599 0.09671800   1.008000   ; qtot 0.337104
 4600          c    156    ccc     C6   4600 0.526324  12.010000   ; qtot 1.333631
 4601          o    156    ccc     O1   4601 -0.39142825  16.000000   ; qtot 0.637125
 4602         oh    156    ccc     O2   4602 -0.56822625  16.000000   ; qtot -0.203686
 4603         ho    156    ccc    H11   4603 0.4186155   1.008000   ; qtot 0.322389
 4604         c3    156    ccc     C7   4604 -0.01321200  12.010000   ; qtot 0.309177
 4605         h1    156    ccc    H12   4605 0.08172200   1.008000   ; qtot 0.390899
 4606         h1    156    ccc    H13   4606 0.08172200   1.008000   ; qtot 0.472621
 4607         c3    156    ccc     C8   4607 -0.22180000  12.010000   ; qtot 0.250821
 4608         hc    156    ccc    H14   4608 0.09671800   1.008000   ; qtot 0.347539
 4609         hc    156    ccc    H15   4609 0.09671800   1.008000   ; qtot 0.444257
 4610          c    156    ccc     C9   4610 0.526324  12.010000   ; qtot 1.440784
 4611          o    156    ccc     O3   4611 -0.39142825  16.000000   ; qtot 0.744278
 4612         oh    156    ccc     O4   4612 -0.56822625  16.000000   ; qtot -0.096533
 4613         ho    156    ccc    H16   4613 0.4186155   1.008000   ; qtot 0.429542
 4614         os    156    ccc     O5   4614 -0.42966500  16.000000   ; qtot -0.000123
; residue  157 ccc rtp ccc q 0.0
 4615         c3    157    ccc     C1   4615 0.50749700  12.010000   ; qtot 0.507374
 4616         h1    157    ccc     H1   4616 -0.02808400   1.008000   ; qtot 0.479290
 4617         h1    157    ccc     H2   4617 -0.02808400   1.008000   ; qtot 0.451206
 4618         c3    157    ccc     C2   4618 -0.15486000  12.010000   ; qtot 0.296346
 4619         hc    157    ccc     H3   4619 0.10266400   1.008000   ; qtot 0.399010
 4620         hc    157    ccc     H4   4620 0.10266400   1.008000   ; qtot 0.501674
 4621         c3    157    ccc     C3   4621 -0.15693500  12.010000   ; qtot 0.344739
 4622         h1    157    ccc     H5   4622 0.08499200   1.008000   ; qtot 0.429731
 4623         h1    157    ccc     H6   4623 0.08499200   1.008000   ; qtot 0.514723
 4624         n3    157    ccc     N1   4624 -0.29948700  14.010000   ; qtot 0.215236
 4625         c3    157    ccc     C4   4625 -0.01321200  12.010000   ; qtot 0.202024
 4626         h1    157    ccc     H7   4626 0.08172200   1.008000   ; qtot 0.283746
 4627         h1    157    ccc     H8   4627 0.08172200   1.008000   ; qtot 0.365468
 4628         c3    157    ccc     C5   4628 -0.22180000  12.010000   ; qtot 0.143668
 4629         hc    157    ccc     H9   4629 0.09671800   1.008000   ; qtot 0.240386
 4630         hc    157    ccc    H10   4630 0.09671800   1.008000   ; qtot 0.337104
 4631          c    157    ccc     C6   4631 0.526324  12.010000   ; qtot 1.333631
 4632          o    157    ccc     O1   4632 -0.39142825  16.000000   ; qtot 0.637125
 4633         oh    157    ccc     O2   4633 -0.56822625  16.000000   ; qtot -0.203686
 4634         ho    157    ccc    H11   4634 0.4186155   1.008000   ; qtot 0.322389
 4635         c3    157    ccc     C7   4635 -0.01321200  12.010000   ; qtot 0.309177
 4636         h1    157    ccc    H12   4636 0.08172200   1.008000   ; qtot 0.390899
 4637         h1    157    ccc    H13   4637 0.08172200   1.008000   ; qtot 0.472621
 4638         c3    157    ccc     C8   4638 -0.22180000  12.010000   ; qtot 0.250821
 4639         hc    157    ccc    H14   4639 0.09671800   1.008000   ; qtot 0.347539
 4640         hc    157    ccc    H15   4640 0.09671800   1.008000   ; qtot 0.444257
 4641          c    157    ccc     C9   4641 0.526324  12.010000   ; qtot 1.440784
 4642          o    157    ccc     O3   4642 -0.39142825  16.000000   ; qtot 0.744278
 4643         oh    157    ccc     O4   4643 -0.56822625  16.000000   ; qtot -0.096533
 4644         ho    157    ccc    H16   4644 0.4186155   1.008000   ; qtot 0.429542
 4645         os    157    ccc     O5   4645 -0.42966500  16.000000   ; qtot -0.000123
; residue  158 ccc rtp ccc q 0.0
 4646         c3    158    ccc     C1   4646 0.50749700  12.010000   ; qtot 0.507374
 4647         h1    158    ccc     H1   4647 -0.02808400   1.008000   ; qtot 0.479290
 4648         h1    158    ccc     H2   4648 -0.02808400   1.008000   ; qtot 0.451206
 4649         c3    158    ccc     C2   4649 -0.15486000  12.010000   ; qtot 0.296346
 4650         hc    158    ccc     H3   4650 0.10266400   1.008000   ; qtot 0.399010
 4651         hc    158    ccc     H4   4651 0.10266400   1.008000   ; qtot 0.501674
 4652         c3    158    ccc     C3   4652 -0.15693500  12.010000   ; qtot 0.344739
 4653         h1    158    ccc     H5   4653 0.08499200   1.008000   ; qtot 0.429731
 4654         h1    158    ccc     H6   4654 0.08499200   1.008000   ; qtot 0.514723
 4655         n3    158    ccc     N1   4655 -0.29948700  14.010000   ; qtot 0.215236
 4656         c3    158    ccc     C4   4656 -0.01321200  12.010000   ; qtot 0.202024
 4657         h1    158    ccc     H7   4657 0.08172200   1.008000   ; qtot 0.283746
 4658         h1    158    ccc     H8   4658 0.08172200   1.008000   ; qtot 0.365468
 4659         c3    158    ccc     C5   4659 -0.22180000  12.010000   ; qtot 0.143668
 4660         hc    158    ccc     H9   4660 0.09671800   1.008000   ; qtot 0.240386
 4661         hc    158    ccc    H10   4661 0.09671800   1.008000   ; qtot 0.337104
 4662          c    158    ccc     C6   4662 0.526324  12.010000   ; qtot 1.333631
 4663          o    158    ccc     O1   4663 -0.39142825  16.000000   ; qtot 0.637125
 4664         oh    158    ccc     O2   4664 -0.56822625  16.000000   ; qtot -0.203686
 4665         ho    158    ccc    H11   4665 0.4186155   1.008000   ; qtot 0.322389
 4666         c3    158    ccc     C7   4666 -0.01321200  12.010000   ; qtot 0.309177
 4667         h1    158    ccc    H12   4667 0.08172200   1.008000   ; qtot 0.390899
 4668         h1    158    ccc    H13   4668 0.08172200   1.008000   ; qtot 0.472621
 4669         c3    158    ccc     C8   4669 -0.22180000  12.010000   ; qtot 0.250821
 4670         hc    158    ccc    H14   4670 0.09671800   1.008000   ; qtot 0.347539
 4671         hc    158    ccc    H15   4671 0.09671800   1.008000   ; qtot 0.444257
 4672          c    158    ccc     C9   4672 0.526324  12.010000   ; qtot 1.440784
 4673          o    158    ccc     O3   4673 -0.39142825  16.000000   ; qtot 0.744278
 4674         oh    158    ccc     O4   4674 -0.56822625  16.000000   ; qtot -0.096533
 4675         ho    158    ccc    H16   4675 0.4186155   1.008000   ; qtot 0.429542
 4676         os    158    ccc     O5   4676 -0.42966500  16.000000   ; qtot -0.000123
; residue  159 ccc rtp ccc q 0.0
 4677         c3    159    ccc     C1   4677 0.50749700  12.010000   ; qtot 0.507374
 4678         h1    159    ccc     H1   4678 -0.02808400   1.008000   ; qtot 0.479290
 4679         h1    159    ccc     H2   4679 -0.02808400   1.008000   ; qtot 0.451206
 4680         c3    159    ccc     C2   4680 -0.15486000  12.010000   ; qtot 0.296346
 4681         hc    159    ccc     H3   4681 0.10266400   1.008000   ; qtot 0.399010
 4682         hc    159    ccc     H4   4682 0.10266400   1.008000   ; qtot 0.501674
 4683         c3    159    ccc     C3   4683 -0.15693500  12.010000   ; qtot 0.344739
 4684         h1    159    ccc     H5   4684 0.08499200   1.008000   ; qtot 0.429731
 4685         h1    159    ccc     H6   4685 0.08499200   1.008000   ; qtot 0.514723
 4686         n3    159    ccc     N1   4686 -0.29948700  14.010000   ; qtot 0.215236
 4687         c3    159    ccc     C4   4687 -0.01321200  12.010000   ; qtot 0.202024
 4688         h1    159    ccc     H7   4688 0.08172200   1.008000   ; qtot 0.283746
 4689         h1    159    ccc     H8   4689 0.08172200   1.008000   ; qtot 0.365468
 4690         c3    159    ccc     C5   4690 -0.22180000  12.010000   ; qtot 0.143668
 4691         hc    159    ccc     H9   4691 0.09671800   1.008000   ; qtot 0.240386
 4692         hc    159    ccc    H10   4692 0.09671800   1.008000   ; qtot 0.337104
 4693          c    159    ccc     C6   4693 0.526324  12.010000   ; qtot 1.333631
 4694          o    159    ccc     O1   4694 -0.39142825  16.000000   ; qtot 0.637125
 4695         oh    159    ccc     O2   4695 -0.56822625  16.000000   ; qtot -0.203686
 4696         ho    159    ccc    H11   4696 0.4186155   1.008000   ; qtot 0.322389
 4697         c3    159    ccc     C7   4697 -0.01321200  12.010000   ; qtot 0.309177
 4698         h1    159    ccc    H12   4698 0.08172200   1.008000   ; qtot 0.390899
 4699         h1    159    ccc    H13   4699 0.08172200   1.008000   ; qtot 0.472621
 4700         c3    159    ccc     C8   4700 -0.22180000  12.010000   ; qtot 0.250821
 4701         hc    159    ccc    H14   4701 0.09671800   1.008000   ; qtot 0.347539
 4702         hc    159    ccc    H15   4702 0.09671800   1.008000   ; qtot 0.444257
 4703          c    159    ccc     C9   4703 0.526324  12.010000   ; qtot 1.440784
 4704          o    159    ccc     O3   4704 -0.39142825  16.000000   ; qtot 0.744278
 4705         oh    159    ccc     O4   4705 -0.56822625  16.000000   ; qtot -0.096533
 4706         ho    159    ccc    H16   4706 0.4186155   1.008000   ; qtot 0.429542
 4707         os    159    ccc     O5   4707 -0.42966500  16.000000   ; qtot -0.000123
; residue  160 ccc rtp ccc q 0.0
 4708         c3    160    ccc     C1   4708 0.50749700  12.010000   ; qtot 0.507374
 4709         h1    160    ccc     H1   4709 -0.02808400   1.008000   ; qtot 0.479290
 4710         h1    160    ccc     H2   4710 -0.02808400   1.008000   ; qtot 0.451206
 4711         c3    160    ccc     C2   4711 -0.15486000  12.010000   ; qtot 0.296346
 4712         hc    160    ccc     H3   4712 0.10266400   1.008000   ; qtot 0.399010
 4713         hc    160    ccc     H4   4713 0.10266400   1.008000   ; qtot 0.501674
 4714         c3    160    ccc     C3   4714 -0.15693500  12.010000   ; qtot 0.344739
 4715         h1    160    ccc     H5   4715 0.08499200   1.008000   ; qtot 0.429731
 4716         h1    160    ccc     H6   4716 0.08499200   1.008000   ; qtot 0.514723
 4717         n3    160    ccc     N1   4717 -0.29948700  14.010000   ; qtot 0.215236
 4718         c3    160    ccc     C4   4718 -0.01321200  12.010000   ; qtot 0.202024
 4719         h1    160    ccc     H7   4719 0.08172200   1.008000   ; qtot 0.283746
 4720         h1    160    ccc     H8   4720 0.08172200   1.008000   ; qtot 0.365468
 4721         c3    160    ccc     C5   4721 -0.22180000  12.010000   ; qtot 0.143668
 4722         hc    160    ccc     H9   4722 0.09671800   1.008000   ; qtot 0.240386
 4723         hc    160    ccc    H10   4723 0.09671800   1.008000   ; qtot 0.337104
 4724          c    160    ccc     C6   4724 0.526324  12.010000   ; qtot 1.333631
 4725          o    160    ccc     O1   4725 -0.39142825  16.000000   ; qtot 0.637125
 4726         oh    160    ccc     O2   4726 -0.56822625  16.000000   ; qtot -0.203686
 4727         ho    160    ccc    H11   4727 0.4186155   1.008000   ; qtot 0.322389
 4728         c3    160    ccc     C7   4728 -0.01321200  12.010000   ; qtot 0.309177
 4729         h1    160    ccc    H12   4729 0.08172200   1.008000   ; qtot 0.390899
 4730         h1    160    ccc    H13   4730 0.08172200   1.008000   ; qtot 0.472621
 4731         c3    160    ccc     C8   4731 -0.22180000  12.010000   ; qtot 0.250821
 4732         hc    160    ccc    H14   4732 0.09671800   1.008000   ; qtot 0.347539
 4733         hc    160    ccc    H15   4733 0.09671800   1.008000   ; qtot 0.444257
 4734          c    160    ccc     C9   4734 0.526324  12.010000   ; qtot 1.440784
 4735          o    160    ccc     O3   4735 -0.39142825  16.000000   ; qtot 0.744278
 4736         oh    160    ccc     O4   4736 -0.56822625  16.000000   ; qtot -0.096533
 4737         ho    160    ccc    H16   4737 0.4186155   1.008000   ; qtot 0.429542
 4738         os    160    ccc     O5   4738 -0.42966500  16.000000   ; qtot -0.000123
; residue  161 ccc rtp ccc q 0.0
 4739         c3    161    ccc     C1   4739 0.50749700  12.010000   ; qtot 0.507374
 4740         h1    161    ccc     H1   4740 -0.02808400   1.008000   ; qtot 0.479290
 4741         h1    161    ccc     H2   4741 -0.02808400   1.008000   ; qtot 0.451206
 4742         c3    161    ccc     C2   4742 -0.15486000  12.010000   ; qtot 0.296346
 4743         hc    161    ccc     H3   4743 0.10266400   1.008000   ; qtot 0.399010
 4744         hc    161    ccc     H4   4744 0.10266400   1.008000   ; qtot 0.501674
 4745         c3    161    ccc     C3   4745 -0.15693500  12.010000   ; qtot 0.344739
 4746         h1    161    ccc     H5   4746 0.08499200   1.008000   ; qtot 0.429731
 4747         h1    161    ccc     H6   4747 0.08499200   1.008000   ; qtot 0.514723
 4748         n3    161    ccc     N1   4748 -0.29948700  14.010000   ; qtot 0.215236
 4749         c3    161    ccc     C4   4749 -0.01321200  12.010000   ; qtot 0.202024
 4750         h1    161    ccc     H7   4750 0.08172200   1.008000   ; qtot 0.283746
 4751         h1    161    ccc     H8   4751 0.08172200   1.008000   ; qtot 0.365468
 4752         c3    161    ccc     C5   4752 -0.22180000  12.010000   ; qtot 0.143668
 4753         hc    161    ccc     H9   4753 0.09671800   1.008000   ; qtot 0.240386
 4754         hc    161    ccc    H10   4754 0.09671800   1.008000   ; qtot 0.337104
 4755          c    161    ccc     C6   4755 0.526324  12.010000   ; qtot 1.333631
 4756          o    161    ccc     O1   4756 -0.39142825  16.000000   ; qtot 0.637125
 4757         oh    161    ccc     O2   4757 -0.56822625  16.000000   ; qtot -0.203686
 4758         ho    161    ccc    H11   4758 0.4186155   1.008000   ; qtot 0.322389
 4759         c3    161    ccc     C7   4759 -0.01321200  12.010000   ; qtot 0.309177
 4760         h1    161    ccc    H12   4760 0.08172200   1.008000   ; qtot 0.390899
 4761         h1    161    ccc    H13   4761 0.08172200   1.008000   ; qtot 0.472621
 4762         c3    161    ccc     C8   4762 -0.22180000  12.010000   ; qtot 0.250821
 4763         hc    161    ccc    H14   4763 0.09671800   1.008000   ; qtot 0.347539
 4764         hc    161    ccc    H15   4764 0.09671800   1.008000   ; qtot 0.444257
 4765          c    161    ccc     C9   4765 0.526324  12.010000   ; qtot 1.440784
 4766          o    161    ccc     O3   4766 -0.39142825  16.000000   ; qtot 0.744278
 4767         oh    161    ccc     O4   4767 -0.56822625  16.000000   ; qtot -0.096533
 4768         ho    161    ccc    H16   4768 0.4186155   1.008000   ; qtot 0.429542
 4769         os    161    ccc     O5   4769 -0.42966500  16.000000   ; qtot -0.000123
; residue  162 ccc rtp ccc q 0.0
 4770         c3    162    ccc     C1   4770 0.50749700  12.010000   ; qtot 0.507374
 4771         h1    162    ccc     H1   4771 -0.02808400   1.008000   ; qtot 0.479290
 4772         h1    162    ccc     H2   4772 -0.02808400   1.008000   ; qtot 0.451206
 4773         c3    162    ccc     C2   4773 -0.15486000  12.010000   ; qtot 0.296346
 4774         hc    162    ccc     H3   4774 0.10266400   1.008000   ; qtot 0.399010
 4775         hc    162    ccc     H4   4775 0.10266400   1.008000   ; qtot 0.501674
 4776         c3    162    ccc     C3   4776 -0.15693500  12.010000   ; qtot 0.344739
 4777         h1    162    ccc     H5   4777 0.08499200   1.008000   ; qtot 0.429731
 4778         h1    162    ccc     H6   4778 0.08499200   1.008000   ; qtot 0.514723
 4779         n3    162    ccc     N1   4779 -0.29948700  14.010000   ; qtot 0.215236
 4780         c3    162    ccc     C4   4780 -0.01321200  12.010000   ; qtot 0.202024
 4781         h1    162    ccc     H7   4781 0.08172200   1.008000   ; qtot 0.283746
 4782         h1    162    ccc     H8   4782 0.08172200   1.008000   ; qtot 0.365468
 4783         c3    162    ccc     C5   4783 -0.22180000  12.010000   ; qtot 0.143668
 4784         hc    162    ccc     H9   4784 0.09671800   1.008000   ; qtot 0.240386
 4785         hc    162    ccc    H10   4785 0.09671800   1.008000   ; qtot 0.337104
 4786          c    162    ccc     C6   4786 0.526324  12.010000   ; qtot 1.333631
 4787          o    162    ccc     O1   4787 -0.39142825  16.000000   ; qtot 0.637125
 4788         oh    162    ccc     O2   4788 -0.56822625  16.000000   ; qtot -0.203686
 4789         ho    162    ccc    H11   4789 0.4186155   1.008000   ; qtot 0.322389
 4790         c3    162    ccc     C7   4790 -0.01321200  12.010000   ; qtot 0.309177
 4791         h1    162    ccc    H12   4791 0.08172200   1.008000   ; qtot 0.390899
 4792         h1    162    ccc    H13   4792 0.08172200   1.008000   ; qtot 0.472621
 4793         c3    162    ccc     C8   4793 -0.22180000  12.010000   ; qtot 0.250821
 4794         hc    162    ccc    H14   4794 0.09671800   1.008000   ; qtot 0.347539
 4795         hc    162    ccc    H15   4795 0.09671800   1.008000   ; qtot 0.444257
 4796          c    162    ccc     C9   4796 0.526324  12.010000   ; qtot 1.440784
 4797          o    162    ccc     O3   4797 -0.39142825  16.000000   ; qtot 0.744278
 4798         oh    162    ccc     O4   4798 -0.56822625  16.000000   ; qtot -0.096533
 4799         ho    162    ccc    H16   4799 0.4186155   1.008000   ; qtot 0.429542
 4800         os    162    ccc     O5   4800 -0.42966500  16.000000   ; qtot -0.000123
; residue  163 ccc rtp ccc q 0.0
 4801         c3    163    ccc     C1   4801 0.50749700  12.010000   ; qtot 0.507374
 4802         h1    163    ccc     H1   4802 -0.02808400   1.008000   ; qtot 0.479290
 4803         h1    163    ccc     H2   4803 -0.02808400   1.008000   ; qtot 0.451206
 4804         c3    163    ccc     C2   4804 -0.15486000  12.010000   ; qtot 0.296346
 4805         hc    163    ccc     H3   4805 0.10266400   1.008000   ; qtot 0.399010
 4806         hc    163    ccc     H4   4806 0.10266400   1.008000   ; qtot 0.501674
 4807         c3    163    ccc     C3   4807 -0.15693500  12.010000   ; qtot 0.344739
 4808         h1    163    ccc     H5   4808 0.08499200   1.008000   ; qtot 0.429731
 4809         h1    163    ccc     H6   4809 0.08499200   1.008000   ; qtot 0.514723
 4810         n3    163    ccc     N1   4810 -0.29948700  14.010000   ; qtot 0.215236
 4811         c3    163    ccc     C4   4811 -0.01321200  12.010000   ; qtot 0.202024
 4812         h1    163    ccc     H7   4812 0.08172200   1.008000   ; qtot 0.283746
 4813         h1    163    ccc     H8   4813 0.08172200   1.008000   ; qtot 0.365468
 4814         c3    163    ccc     C5   4814 -0.22180000  12.010000   ; qtot 0.143668
 4815         hc    163    ccc     H9   4815 0.09671800   1.008000   ; qtot 0.240386
 4816         hc    163    ccc    H10   4816 0.09671800   1.008000   ; qtot 0.337104
 4817          c    163    ccc     C6   4817 0.526324  12.010000   ; qtot 1.333631
 4818          o    163    ccc     O1   4818 -0.39142825  16.000000   ; qtot 0.637125
 4819         oh    163    ccc     O2   4819 -0.56822625  16.000000   ; qtot -0.203686
 4820         ho    163    ccc    H11   4820 0.4186155   1.008000   ; qtot 0.322389
 4821         c3    163    ccc     C7   4821 -0.01321200  12.010000   ; qtot 0.309177
 4822         h1    163    ccc    H12   4822 0.08172200   1.008000   ; qtot 0.390899
 4823         h1    163    ccc    H13   4823 0.08172200   1.008000   ; qtot 0.472621
 4824         c3    163    ccc     C8   4824 -0.22180000  12.010000   ; qtot 0.250821
 4825         hc    163    ccc    H14   4825 0.09671800   1.008000   ; qtot 0.347539
 4826         hc    163    ccc    H15   4826 0.09671800   1.008000   ; qtot 0.444257
 4827          c    163    ccc     C9   4827 0.526324  12.010000   ; qtot 1.440784
 4828          o    163    ccc     O3   4828 -0.39142825  16.000000   ; qtot 0.744278
 4829         oh    163    ccc     O4   4829 -0.56822625  16.000000   ; qtot -0.096533
 4830         ho    163    ccc    H16   4830 0.4186155   1.008000   ; qtot 0.429542
 4831         os    163    ccc     O5   4831 -0.42966500  16.000000   ; qtot -0.000123
; residue  164 ccc rtp ccc q 0.0
 4832         c3    164    ccc     C1   4832 0.50749700  12.010000   ; qtot 0.507374
 4833         h1    164    ccc     H1   4833 -0.02808400   1.008000   ; qtot 0.479290
 4834         h1    164    ccc     H2   4834 -0.02808400   1.008000   ; qtot 0.451206
 4835         c3    164    ccc     C2   4835 -0.15486000  12.010000   ; qtot 0.296346
 4836         hc    164    ccc     H3   4836 0.10266400   1.008000   ; qtot 0.399010
 4837         hc    164    ccc     H4   4837 0.10266400   1.008000   ; qtot 0.501674
 4838         c3    164    ccc     C3   4838 -0.15693500  12.010000   ; qtot 0.344739
 4839         h1    164    ccc     H5   4839 0.08499200   1.008000   ; qtot 0.429731
 4840         h1    164    ccc     H6   4840 0.08499200   1.008000   ; qtot 0.514723
 4841         n3    164    ccc     N1   4841 -0.29948700  14.010000   ; qtot 0.215236
 4842         c3    164    ccc     C4   4842 -0.01321200  12.010000   ; qtot 0.202024
 4843         h1    164    ccc     H7   4843 0.08172200   1.008000   ; qtot 0.283746
 4844         h1    164    ccc     H8   4844 0.08172200   1.008000   ; qtot 0.365468
 4845         c3    164    ccc     C5   4845 -0.22180000  12.010000   ; qtot 0.143668
 4846         hc    164    ccc     H9   4846 0.09671800   1.008000   ; qtot 0.240386
 4847         hc    164    ccc    H10   4847 0.09671800   1.008000   ; qtot 0.337104
 4848          c    164    ccc     C6   4848 0.526324  12.010000   ; qtot 1.333631
 4849          o    164    ccc     O1   4849 -0.39142825  16.000000   ; qtot 0.637125
 4850         oh    164    ccc     O2   4850 -0.56822625  16.000000   ; qtot -0.203686
 4851         ho    164    ccc    H11   4851 0.4186155   1.008000   ; qtot 0.322389
 4852         c3    164    ccc     C7   4852 -0.01321200  12.010000   ; qtot 0.309177
 4853         h1    164    ccc    H12   4853 0.08172200   1.008000   ; qtot 0.390899
 4854         h1    164    ccc    H13   4854 0.08172200   1.008000   ; qtot 0.472621
 4855         c3    164    ccc     C8   4855 -0.22180000  12.010000   ; qtot 0.250821
 4856         hc    164    ccc    H14   4856 0.09671800   1.008000   ; qtot 0.347539
 4857         hc    164    ccc    H15   4857 0.09671800   1.008000   ; qtot 0.444257
 4858          c    164    ccc     C9   4858 0.526324  12.010000   ; qtot 1.440784
 4859          o    164    ccc     O3   4859 -0.39142825  16.000000   ; qtot 0.744278
 4860         oh    164    ccc     O4   4860 -0.56822625  16.000000   ; qtot -0.096533
 4861         ho    164    ccc    H16   4861 0.4186155   1.008000   ; qtot 0.429542
 4862         os    164    ccc     O5   4862 -0.42966500  16.000000   ; qtot -0.000123
; residue  165 ccc rtp ccc q 0.0
 4863         c3    165    ccc     C1   4863 0.50749700  12.010000   ; qtot 0.507374
 4864         h1    165    ccc     H1   4864 -0.02808400   1.008000   ; qtot 0.479290
 4865         h1    165    ccc     H2   4865 -0.02808400   1.008000   ; qtot 0.451206
 4866         c3    165    ccc     C2   4866 -0.15486000  12.010000   ; qtot 0.296346
 4867         hc    165    ccc     H3   4867 0.10266400   1.008000   ; qtot 0.399010
 4868         hc    165    ccc     H4   4868 0.10266400   1.008000   ; qtot 0.501674
 4869         c3    165    ccc     C3   4869 -0.15693500  12.010000   ; qtot 0.344739
 4870         h1    165    ccc     H5   4870 0.08499200   1.008000   ; qtot 0.429731
 4871         h1    165    ccc     H6   4871 0.08499200   1.008000   ; qtot 0.514723
 4872         n3    165    ccc     N1   4872 -0.29948700  14.010000   ; qtot 0.215236
 4873         c3    165    ccc     C4   4873 -0.01321200  12.010000   ; qtot 0.202024
 4874         h1    165    ccc     H7   4874 0.08172200   1.008000   ; qtot 0.283746
 4875         h1    165    ccc     H8   4875 0.08172200   1.008000   ; qtot 0.365468
 4876         c3    165    ccc     C5   4876 -0.22180000  12.010000   ; qtot 0.143668
 4877         hc    165    ccc     H9   4877 0.09671800   1.008000   ; qtot 0.240386
 4878         hc    165    ccc    H10   4878 0.09671800   1.008000   ; qtot 0.337104
 4879          c    165    ccc     C6   4879 0.526324  12.010000   ; qtot 1.333631
 4880          o    165    ccc     O1   4880 -0.39142825  16.000000   ; qtot 0.637125
 4881         oh    165    ccc     O2   4881 -0.56822625  16.000000   ; qtot -0.203686
 4882         ho    165    ccc    H11   4882 0.4186155   1.008000   ; qtot 0.322389
 4883         c3    165    ccc     C7   4883 -0.01321200  12.010000   ; qtot 0.309177
 4884         h1    165    ccc    H12   4884 0.08172200   1.008000   ; qtot 0.390899
 4885         h1    165    ccc    H13   4885 0.08172200   1.008000   ; qtot 0.472621
 4886         c3    165    ccc     C8   4886 -0.22180000  12.010000   ; qtot 0.250821
 4887         hc    165    ccc    H14   4887 0.09671800   1.008000   ; qtot 0.347539
 4888         hc    165    ccc    H15   4888 0.09671800   1.008000   ; qtot 0.444257
 4889          c    165    ccc     C9   4889 0.526324  12.010000   ; qtot 1.440784
 4890          o    165    ccc     O3   4890 -0.39142825  16.000000   ; qtot 0.744278
 4891         oh    165    ccc     O4   4891 -0.56822625  16.000000   ; qtot -0.096533
 4892         ho    165    ccc    H16   4892 0.4186155   1.008000   ; qtot 0.429542
 4893         os    165    ccc     O5   4893 -0.42966500  16.000000   ; qtot -0.000123
; residue  166 ccc rtp ccc q 0.0
 4894         c3    166    ccc     C1   4894 0.50749700  12.010000   ; qtot 0.507374
 4895         h1    166    ccc     H1   4895 -0.02808400   1.008000   ; qtot 0.479290
 4896         h1    166    ccc     H2   4896 -0.02808400   1.008000   ; qtot 0.451206
 4897         c3    166    ccc     C2   4897 -0.15486000  12.010000   ; qtot 0.296346
 4898         hc    166    ccc     H3   4898 0.10266400   1.008000   ; qtot 0.399010
 4899         hc    166    ccc     H4   4899 0.10266400   1.008000   ; qtot 0.501674
 4900         c3    166    ccc     C3   4900 -0.15693500  12.010000   ; qtot 0.344739
 4901         h1    166    ccc     H5   4901 0.08499200   1.008000   ; qtot 0.429731
 4902         h1    166    ccc     H6   4902 0.08499200   1.008000   ; qtot 0.514723
 4903         n3    166    ccc     N1   4903 -0.29948700  14.010000   ; qtot 0.215236
 4904         c3    166    ccc     C4   4904 -0.01321200  12.010000   ; qtot 0.202024
 4905         h1    166    ccc     H7   4905 0.08172200   1.008000   ; qtot 0.283746
 4906         h1    166    ccc     H8   4906 0.08172200   1.008000   ; qtot 0.365468
 4907         c3    166    ccc     C5   4907 -0.22180000  12.010000   ; qtot 0.143668
 4908         hc    166    ccc     H9   4908 0.09671800   1.008000   ; qtot 0.240386
 4909         hc    166    ccc    H10   4909 0.09671800   1.008000   ; qtot 0.337104
 4910          c    166    ccc     C6   4910 0.526324  12.010000   ; qtot 1.333631
 4911          o    166    ccc     O1   4911 -0.39142825  16.000000   ; qtot 0.637125
 4912         oh    166    ccc     O2   4912 -0.56822625  16.000000   ; qtot -0.203686
 4913         ho    166    ccc    H11   4913 0.4186155   1.008000   ; qtot 0.322389
 4914         c3    166    ccc     C7   4914 -0.01321200  12.010000   ; qtot 0.309177
 4915         h1    166    ccc    H12   4915 0.08172200   1.008000   ; qtot 0.390899
 4916         h1    166    ccc    H13   4916 0.08172200   1.008000   ; qtot 0.472621
 4917         c3    166    ccc     C8   4917 -0.22180000  12.010000   ; qtot 0.250821
 4918         hc    166    ccc    H14   4918 0.09671800   1.008000   ; qtot 0.347539
 4919         hc    166    ccc    H15   4919 0.09671800   1.008000   ; qtot 0.444257
 4920          c    166    ccc     C9   4920 0.526324  12.010000   ; qtot 1.440784
 4921          o    166    ccc     O3   4921 -0.39142825  16.000000   ; qtot 0.744278
 4922         oh    166    ccc     O4   4922 -0.56822625  16.000000   ; qtot -0.096533
 4923         ho    166    ccc    H16   4923 0.4186155   1.008000   ; qtot 0.429542
 4924         os    166    ccc     O5   4924 -0.42966500  16.000000   ; qtot -0.000123
; residue  167 ccc rtp ccc q 0.0
 4925         c3    167    ccc     C1   4925 0.50749700  12.010000   ; qtot 0.507374
 4926         h1    167    ccc     H1   4926 -0.02808400   1.008000   ; qtot 0.479290
 4927         h1    167    ccc     H2   4927 -0.02808400   1.008000   ; qtot 0.451206
 4928         c3    167    ccc     C2   4928 -0.15486000  12.010000   ; qtot 0.296346
 4929         hc    167    ccc     H3   4929 0.10266400   1.008000   ; qtot 0.399010
 4930         hc    167    ccc     H4   4930 0.10266400   1.008000   ; qtot 0.501674
 4931         c3    167    ccc     C3   4931 -0.15693500  12.010000   ; qtot 0.344739
 4932         h1    167    ccc     H5   4932 0.08499200   1.008000   ; qtot 0.429731
 4933         h1    167    ccc     H6   4933 0.08499200   1.008000   ; qtot 0.514723
 4934         n3    167    ccc     N1   4934 -0.29948700  14.010000   ; qtot 0.215236
 4935         c3    167    ccc     C4   4935 -0.01321200  12.010000   ; qtot 0.202024
 4936         h1    167    ccc     H7   4936 0.08172200   1.008000   ; qtot 0.283746
 4937         h1    167    ccc     H8   4937 0.08172200   1.008000   ; qtot 0.365468
 4938         c3    167    ccc     C5   4938 -0.22180000  12.010000   ; qtot 0.143668
 4939         hc    167    ccc     H9   4939 0.09671800   1.008000   ; qtot 0.240386
 4940         hc    167    ccc    H10   4940 0.09671800   1.008000   ; qtot 0.337104
 4941          c    167    ccc     C6   4941 0.526324  12.010000   ; qtot 1.333631
 4942          o    167    ccc     O1   4942 -0.39142825  16.000000   ; qtot 0.637125
 4943         oh    167    ccc     O2   4943 -0.56822625  16.000000   ; qtot -0.203686
 4944         ho    167    ccc    H11   4944 0.4186155   1.008000   ; qtot 0.322389
 4945         c3    167    ccc     C7   4945 -0.01321200  12.010000   ; qtot 0.309177
 4946         h1    167    ccc    H12   4946 0.08172200   1.008000   ; qtot 0.390899
 4947         h1    167    ccc    H13   4947 0.08172200   1.008000   ; qtot 0.472621
 4948         c3    167    ccc     C8   4948 -0.22180000  12.010000   ; qtot 0.250821
 4949         hc    167    ccc    H14   4949 0.09671800   1.008000   ; qtot 0.347539
 4950         hc    167    ccc    H15   4950 0.09671800   1.008000   ; qtot 0.444257
 4951          c    167    ccc     C9   4951 0.526324  12.010000   ; qtot 1.440784
 4952          o    167    ccc     O3   4952 -0.39142825  16.000000   ; qtot 0.744278
 4953         oh    167    ccc     O4   4953 -0.56822625  16.000000   ; qtot -0.096533
 4954         ho    167    ccc    H16   4954 0.4186155   1.008000   ; qtot 0.429542
 4955         os    167    ccc     O5   4955 -0.42966500  16.000000   ; qtot -0.000123
; residue  168 ccc rtp ccc q 0.0
 4956         c3    168    ccc     C1   4956 0.50749700  12.010000   ; qtot 0.507374
 4957         h1    168    ccc     H1   4957 -0.02808400   1.008000   ; qtot 0.479290
 4958         h1    168    ccc     H2   4958 -0.02808400   1.008000   ; qtot 0.451206
 4959         c3    168    ccc     C2   4959 -0.15486000  12.010000   ; qtot 0.296346
 4960         hc    168    ccc     H3   4960 0.10266400   1.008000   ; qtot 0.399010
 4961         hc    168    ccc     H4   4961 0.10266400   1.008000   ; qtot 0.501674
 4962         c3    168    ccc     C3   4962 -0.15693500  12.010000   ; qtot 0.344739
 4963         h1    168    ccc     H5   4963 0.08499200   1.008000   ; qtot 0.429731
 4964         h1    168    ccc     H6   4964 0.08499200   1.008000   ; qtot 0.514723
 4965         n3    168    ccc     N1   4965 -0.29948700  14.010000   ; qtot 0.215236
 4966         c3    168    ccc     C4   4966 -0.01321200  12.010000   ; qtot 0.202024
 4967         h1    168    ccc     H7   4967 0.08172200   1.008000   ; qtot 0.283746
 4968         h1    168    ccc     H8   4968 0.08172200   1.008000   ; qtot 0.365468
 4969         c3    168    ccc     C5   4969 -0.22180000  12.010000   ; qtot 0.143668
 4970         hc    168    ccc     H9   4970 0.09671800   1.008000   ; qtot 0.240386
 4971         hc    168    ccc    H10   4971 0.09671800   1.008000   ; qtot 0.337104
 4972          c    168    ccc     C6   4972 0.526324  12.010000   ; qtot 1.333631
 4973          o    168    ccc     O1   4973 -0.39142825  16.000000   ; qtot 0.637125
 4974         oh    168    ccc     O2   4974 -0.56822625  16.000000   ; qtot -0.203686
 4975         ho    168    ccc    H11   4975 0.4186155   1.008000   ; qtot 0.322389
 4976         c3    168    ccc     C7   4976 -0.01321200  12.010000   ; qtot 0.309177
 4977         h1    168    ccc    H12   4977 0.08172200   1.008000   ; qtot 0.390899
 4978         h1    168    ccc    H13   4978 0.08172200   1.008000   ; qtot 0.472621
 4979         c3    168    ccc     C8   4979 -0.22180000  12.010000   ; qtot 0.250821
 4980         hc    168    ccc    H14   4980 0.09671800   1.008000   ; qtot 0.347539
 4981         hc    168    ccc    H15   4981 0.09671800   1.008000   ; qtot 0.444257
 4982          c    168    ccc     C9   4982 0.526324  12.010000   ; qtot 1.440784
 4983          o    168    ccc     O3   4983 -0.39142825  16.000000   ; qtot 0.744278
 4984         oh    168    ccc     O4   4984 -0.56822625  16.000000   ; qtot -0.096533
 4985         ho    168    ccc    H16   4985 0.4186155   1.008000   ; qtot 0.429542
 4986         os    168    ccc     O5   4986 -0.42966500  16.000000   ; qtot -0.000123
; residue  169 ccc rtp ccc q 0.0
 4987         c3    169    ccc     C1   4987 0.50749700  12.010000   ; qtot 0.507374
 4988         h1    169    ccc     H1   4988 -0.02808400   1.008000   ; qtot 0.479290
 4989         h1    169    ccc     H2   4989 -0.02808400   1.008000   ; qtot 0.451206
 4990         c3    169    ccc     C2   4990 -0.15486000  12.010000   ; qtot 0.296346
 4991         hc    169    ccc     H3   4991 0.10266400   1.008000   ; qtot 0.399010
 4992         hc    169    ccc     H4   4992 0.10266400   1.008000   ; qtot 0.501674
 4993         c3    169    ccc     C3   4993 -0.15693500  12.010000   ; qtot 0.344739
 4994         h1    169    ccc     H5   4994 0.08499200   1.008000   ; qtot 0.429731
 4995         h1    169    ccc     H6   4995 0.08499200   1.008000   ; qtot 0.514723
 4996         n3    169    ccc     N1   4996 -0.29948700  14.010000   ; qtot 0.215236
 4997         c3    169    ccc     C4   4997 -0.01321200  12.010000   ; qtot 0.202024
 4998         h1    169    ccc     H7   4998 0.08172200   1.008000   ; qtot 0.283746
 4999         h1    169    ccc     H8   4999 0.08172200   1.008000   ; qtot 0.365468
 5000         c3    169    ccc     C5   5000 -0.22180000  12.010000   ; qtot 0.143668
 5001         hc    169    ccc     H9   5001 0.09671800   1.008000   ; qtot 0.240386
 5002         hc    169    ccc    H10   5002 0.09671800   1.008000   ; qtot 0.337104
 5003          c    169    ccc     C6   5003 0.526324  12.010000   ; qtot 1.333631
 5004          o    169    ccc     O1   5004 -0.39142825  16.000000   ; qtot 0.637125
 5005         oh    169    ccc     O2   5005 -0.56822625  16.000000   ; qtot -0.203686
 5006         ho    169    ccc    H11   5006 0.4186155   1.008000   ; qtot 0.322389
 5007         c3    169    ccc     C7   5007 -0.01321200  12.010000   ; qtot 0.309177
 5008         h1    169    ccc    H12   5008 0.08172200   1.008000   ; qtot 0.390899
 5009         h1    169    ccc    H13   5009 0.08172200   1.008000   ; qtot 0.472621
 5010         c3    169    ccc     C8   5010 -0.22180000  12.010000   ; qtot 0.250821
 5011         hc    169    ccc    H14   5011 0.09671800   1.008000   ; qtot 0.347539
 5012         hc    169    ccc    H15   5012 0.09671800   1.008000   ; qtot 0.444257
 5013          c    169    ccc     C9   5013 0.526324  12.010000   ; qtot 1.440784
 5014          o    169    ccc     O3   5014 -0.39142825  16.000000   ; qtot 0.744278
 5015         oh    169    ccc     O4   5015 -0.56822625  16.000000   ; qtot -0.096533
 5016         ho    169    ccc    H16   5016 0.4186155   1.008000   ; qtot 0.429542
 5017         os    169    ccc     O5   5017 -0.42966500  16.000000   ; qtot -0.000123
; residue  170 ccc rtp ccc q 0.0
 5018         c3    170    ccc     C1   5018 0.50749700  12.010000   ; qtot 0.507374
 5019         h1    170    ccc     H1   5019 -0.02808400   1.008000   ; qtot 0.479290
 5020         h1    170    ccc     H2   5020 -0.02808400   1.008000   ; qtot 0.451206
 5021         c3    170    ccc     C2   5021 -0.15486000  12.010000   ; qtot 0.296346
 5022         hc    170    ccc     H3   5022 0.10266400   1.008000   ; qtot 0.399010
 5023         hc    170    ccc     H4   5023 0.10266400   1.008000   ; qtot 0.501674
 5024         c3    170    ccc     C3   5024 -0.15693500  12.010000   ; qtot 0.344739
 5025         h1    170    ccc     H5   5025 0.08499200   1.008000   ; qtot 0.429731
 5026         h1    170    ccc     H6   5026 0.08499200   1.008000   ; qtot 0.514723
 5027         n3    170    ccc     N1   5027 -0.29948700  14.010000   ; qtot 0.215236
 5028         c3    170    ccc     C4   5028 -0.01321200  12.010000   ; qtot 0.202024
 5029         h1    170    ccc     H7   5029 0.08172200   1.008000   ; qtot 0.283746
 5030         h1    170    ccc     H8   5030 0.08172200   1.008000   ; qtot 0.365468
 5031         c3    170    ccc     C5   5031 -0.22180000  12.010000   ; qtot 0.143668
 5032         hc    170    ccc     H9   5032 0.09671800   1.008000   ; qtot 0.240386
 5033         hc    170    ccc    H10   5033 0.09671800   1.008000   ; qtot 0.337104
 5034          c    170    ccc     C6   5034 0.526324  12.010000   ; qtot 1.333631
 5035          o    170    ccc     O1   5035 -0.39142825  16.000000   ; qtot 0.637125
 5036         oh    170    ccc     O2   5036 -0.56822625  16.000000   ; qtot -0.203686
 5037         ho    170    ccc    H11   5037 0.4186155   1.008000   ; qtot 0.322389
 5038         c3    170    ccc     C7   5038 -0.01321200  12.010000   ; qtot 0.309177
 5039         h1    170    ccc    H12   5039 0.08172200   1.008000   ; qtot 0.390899
 5040         h1    170    ccc    H13   5040 0.08172200   1.008000   ; qtot 0.472621
 5041         c3    170    ccc     C8   5041 -0.22180000  12.010000   ; qtot 0.250821
 5042         hc    170    ccc    H14   5042 0.09671800   1.008000   ; qtot 0.347539
 5043         hc    170    ccc    H15   5043 0.09671800   1.008000   ; qtot 0.444257
 5044          c    170    ccc     C9   5044 0.526324  12.010000   ; qtot 1.440784
 5045          o    170    ccc     O3   5045 -0.39142825  16.000000   ; qtot 0.744278
 5046         oh    170    ccc     O4   5046 -0.56822625  16.000000   ; qtot -0.096533
 5047         ho    170    ccc    H16   5047 0.4186155   1.008000   ; qtot 0.429542
 5048         os    170    ccc     O5   5048 -0.42966500  16.000000   ; qtot -0.000123
; residue  171 ccc rtp ccc q 0.0
 5049         c3    171    ccc     C1   5049 0.50749700  12.010000   ; qtot 0.507374
 5050         h1    171    ccc     H1   5050 -0.02808400   1.008000   ; qtot 0.479290
 5051         h1    171    ccc     H2   5051 -0.02808400   1.008000   ; qtot 0.451206
 5052         c3    171    ccc     C2   5052 -0.15486000  12.010000   ; qtot 0.296346
 5053         hc    171    ccc     H3   5053 0.10266400   1.008000   ; qtot 0.399010
 5054         hc    171    ccc     H4   5054 0.10266400   1.008000   ; qtot 0.501674
 5055         c3    171    ccc     C3   5055 -0.15693500  12.010000   ; qtot 0.344739
 5056         h1    171    ccc     H5   5056 0.08499200   1.008000   ; qtot 0.429731
 5057         h1    171    ccc     H6   5057 0.08499200   1.008000   ; qtot 0.514723
 5058         n3    171    ccc     N1   5058 -0.29948700  14.010000   ; qtot 0.215236
 5059         c3    171    ccc     C4   5059 -0.01321200  12.010000   ; qtot 0.202024
 5060         h1    171    ccc     H7   5060 0.08172200   1.008000   ; qtot 0.283746
 5061         h1    171    ccc     H8   5061 0.08172200   1.008000   ; qtot 0.365468
 5062         c3    171    ccc     C5   5062 -0.22180000  12.010000   ; qtot 0.143668
 5063         hc    171    ccc     H9   5063 0.09671800   1.008000   ; qtot 0.240386
 5064         hc    171    ccc    H10   5064 0.09671800   1.008000   ; qtot 0.337104
 5065          c    171    ccc     C6   5065 0.526324  12.010000   ; qtot 1.333631
 5066          o    171    ccc     O1   5066 -0.39142825  16.000000   ; qtot 0.637125
 5067         oh    171    ccc     O2   5067 -0.56822625  16.000000   ; qtot -0.203686
 5068         ho    171    ccc    H11   5068 0.4186155   1.008000   ; qtot 0.322389
 5069         c3    171    ccc     C7   5069 -0.01321200  12.010000   ; qtot 0.309177
 5070         h1    171    ccc    H12   5070 0.08172200   1.008000   ; qtot 0.390899
 5071         h1    171    ccc    H13   5071 0.08172200   1.008000   ; qtot 0.472621
 5072         c3    171    ccc     C8   5072 -0.22180000  12.010000   ; qtot 0.250821
 5073         hc    171    ccc    H14   5073 0.09671800   1.008000   ; qtot 0.347539
 5074         hc    171    ccc    H15   5074 0.09671800   1.008000   ; qtot 0.444257
 5075          c    171    ccc     C9   5075 0.526324  12.010000   ; qtot 1.440784
 5076          o    171    ccc     O3   5076 -0.39142825  16.000000   ; qtot 0.744278
 5077         oh    171    ccc     O4   5077 -0.56822625  16.000000   ; qtot -0.096533
 5078         ho    171    ccc    H16   5078 0.4186155   1.008000   ; qtot 0.429542
 5079         os    171    ccc     O5   5079 -0.42966500  16.000000   ; qtot -0.000123
; residue  172 ccc rtp ccc q 0.0
 5080         c3    172    ccc     C1   5080 0.50749700  12.010000   ; qtot 0.507374
 5081         h1    172    ccc     H1   5081 -0.02808400   1.008000   ; qtot 0.479290
 5082         h1    172    ccc     H2   5082 -0.02808400   1.008000   ; qtot 0.451206
 5083         c3    172    ccc     C2   5083 -0.15486000  12.010000   ; qtot 0.296346
 5084         hc    172    ccc     H3   5084 0.10266400   1.008000   ; qtot 0.399010
 5085         hc    172    ccc     H4   5085 0.10266400   1.008000   ; qtot 0.501674
 5086         c3    172    ccc     C3   5086 -0.15693500  12.010000   ; qtot 0.344739
 5087         h1    172    ccc     H5   5087 0.08499200   1.008000   ; qtot 0.429731
 5088         h1    172    ccc     H6   5088 0.08499200   1.008000   ; qtot 0.514723
 5089         n3    172    ccc     N1   5089 -0.29948700  14.010000   ; qtot 0.215236
 5090         c3    172    ccc     C4   5090 -0.01321200  12.010000   ; qtot 0.202024
 5091         h1    172    ccc     H7   5091 0.08172200   1.008000   ; qtot 0.283746
 5092         h1    172    ccc     H8   5092 0.08172200   1.008000   ; qtot 0.365468
 5093         c3    172    ccc     C5   5093 -0.22180000  12.010000   ; qtot 0.143668
 5094         hc    172    ccc     H9   5094 0.09671800   1.008000   ; qtot 0.240386
 5095         hc    172    ccc    H10   5095 0.09671800   1.008000   ; qtot 0.337104
 5096          c    172    ccc     C6   5096 0.526324  12.010000   ; qtot 1.333631
 5097          o    172    ccc     O1   5097 -0.39142825  16.000000   ; qtot 0.637125
 5098         oh    172    ccc     O2   5098 -0.56822625  16.000000   ; qtot -0.203686
 5099         ho    172    ccc    H11   5099 0.4186155   1.008000   ; qtot 0.322389
 5100         c3    172    ccc     C7   5100 -0.01321200  12.010000   ; qtot 0.309177
 5101         h1    172    ccc    H12   5101 0.08172200   1.008000   ; qtot 0.390899
 5102         h1    172    ccc    H13   5102 0.08172200   1.008000   ; qtot 0.472621
 5103         c3    172    ccc     C8   5103 -0.22180000  12.010000   ; qtot 0.250821
 5104         hc    172    ccc    H14   5104 0.09671800   1.008000   ; qtot 0.347539
 5105         hc    172    ccc    H15   5105 0.09671800   1.008000   ; qtot 0.444257
 5106          c    172    ccc     C9   5106 0.526324  12.010000   ; qtot 1.440784
 5107          o    172    ccc     O3   5107 -0.39142825  16.000000   ; qtot 0.744278
 5108         oh    172    ccc     O4   5108 -0.56822625  16.000000   ; qtot -0.096533
 5109         ho    172    ccc    H16   5109 0.4186155   1.008000   ; qtot 0.429542
 5110         os    172    ccc     O5   5110 -0.42966500  16.000000   ; qtot -0.000123
; residue  173 ccc rtp ccc q 0.0
 5111         c3    173    ccc     C1   5111 0.50749700  12.010000   ; qtot 0.507374
 5112         h1    173    ccc     H1   5112 -0.02808400   1.008000   ; qtot 0.479290
 5113         h1    173    ccc     H2   5113 -0.02808400   1.008000   ; qtot 0.451206
 5114         c3    173    ccc     C2   5114 -0.15486000  12.010000   ; qtot 0.296346
 5115         hc    173    ccc     H3   5115 0.10266400   1.008000   ; qtot 0.399010
 5116         hc    173    ccc     H4   5116 0.10266400   1.008000   ; qtot 0.501674
 5117         c3    173    ccc     C3   5117 -0.15693500  12.010000   ; qtot 0.344739
 5118         h1    173    ccc     H5   5118 0.08499200   1.008000   ; qtot 0.429731
 5119         h1    173    ccc     H6   5119 0.08499200   1.008000   ; qtot 0.514723
 5120         n3    173    ccc     N1   5120 -0.29948700  14.010000   ; qtot 0.215236
 5121         c3    173    ccc     C4   5121 -0.01321200  12.010000   ; qtot 0.202024
 5122         h1    173    ccc     H7   5122 0.08172200   1.008000   ; qtot 0.283746
 5123         h1    173    ccc     H8   5123 0.08172200   1.008000   ; qtot 0.365468
 5124         c3    173    ccc     C5   5124 -0.22180000  12.010000   ; qtot 0.143668
 5125         hc    173    ccc     H9   5125 0.09671800   1.008000   ; qtot 0.240386
 5126         hc    173    ccc    H10   5126 0.09671800   1.008000   ; qtot 0.337104
 5127          c    173    ccc     C6   5127 0.526324  12.010000   ; qtot 1.333631
 5128          o    173    ccc     O1   5128 -0.39142825  16.000000   ; qtot 0.637125
 5129         oh    173    ccc     O2   5129 -0.56822625  16.000000   ; qtot -0.203686
 5130         ho    173    ccc    H11   5130 0.4186155   1.008000   ; qtot 0.322389
 5131         c3    173    ccc     C7   5131 -0.01321200  12.010000   ; qtot 0.309177
 5132         h1    173    ccc    H12   5132 0.08172200   1.008000   ; qtot 0.390899
 5133         h1    173    ccc    H13   5133 0.08172200   1.008000   ; qtot 0.472621
 5134         c3    173    ccc     C8   5134 -0.22180000  12.010000   ; qtot 0.250821
 5135         hc    173    ccc    H14   5135 0.09671800   1.008000   ; qtot 0.347539
 5136         hc    173    ccc    H15   5136 0.09671800   1.008000   ; qtot 0.444257
 5137          c    173    ccc     C9   5137 0.526324  12.010000   ; qtot 1.440784
 5138          o    173    ccc     O3   5138 -0.39142825  16.000000   ; qtot 0.744278
 5139         oh    173    ccc     O4   5139 -0.56822625  16.000000   ; qtot -0.096533
 5140         ho    173    ccc    H16   5140 0.4186155   1.008000   ; qtot 0.429542
 5141         os    173    ccc     O5   5141 -0.42966500  16.000000   ; qtot -0.000123
; residue  174 ccc rtp ccc q 0.0
 5142         c3    174    ccc     C1   5142 0.50749700  12.010000   ; qtot 0.507374
 5143         h1    174    ccc     H1   5143 -0.02808400   1.008000   ; qtot 0.479290
 5144         h1    174    ccc     H2   5144 -0.02808400   1.008000   ; qtot 0.451206
 5145         c3    174    ccc     C2   5145 -0.15486000  12.010000   ; qtot 0.296346
 5146         hc    174    ccc     H3   5146 0.10266400   1.008000   ; qtot 0.399010
 5147         hc    174    ccc     H4   5147 0.10266400   1.008000   ; qtot 0.501674
 5148         c3    174    ccc     C3   5148 -0.15693500  12.010000   ; qtot 0.344739
 5149         h1    174    ccc     H5   5149 0.08499200   1.008000   ; qtot 0.429731
 5150         h1    174    ccc     H6   5150 0.08499200   1.008000   ; qtot 0.514723
 5151         n3    174    ccc     N1   5151 -0.29948700  14.010000   ; qtot 0.215236
 5152         c3    174    ccc     C4   5152 -0.01321200  12.010000   ; qtot 0.202024
 5153         h1    174    ccc     H7   5153 0.08172200   1.008000   ; qtot 0.283746
 5154         h1    174    ccc     H8   5154 0.08172200   1.008000   ; qtot 0.365468
 5155         c3    174    ccc     C5   5155 -0.22180000  12.010000   ; qtot 0.143668
 5156         hc    174    ccc     H9   5156 0.09671800   1.008000   ; qtot 0.240386
 5157         hc    174    ccc    H10   5157 0.09671800   1.008000   ; qtot 0.337104
 5158          c    174    ccc     C6   5158 0.526324  12.010000   ; qtot 1.333631
 5159          o    174    ccc     O1   5159 -0.39142825  16.000000   ; qtot 0.637125
 5160         oh    174    ccc     O2   5160 -0.56822625  16.000000   ; qtot -0.203686
 5161         ho    174    ccc    H11   5161 0.4186155   1.008000   ; qtot 0.322389
 5162         c3    174    ccc     C7   5162 -0.01321200  12.010000   ; qtot 0.309177
 5163         h1    174    ccc    H12   5163 0.08172200   1.008000   ; qtot 0.390899
 5164         h1    174    ccc    H13   5164 0.08172200   1.008000   ; qtot 0.472621
 5165         c3    174    ccc     C8   5165 -0.22180000  12.010000   ; qtot 0.250821
 5166         hc    174    ccc    H14   5166 0.09671800   1.008000   ; qtot 0.347539
 5167         hc    174    ccc    H15   5167 0.09671800   1.008000   ; qtot 0.444257
 5168          c    174    ccc     C9   5168 0.526324  12.010000   ; qtot 1.440784
 5169          o    174    ccc     O3   5169 -0.39142825  16.000000   ; qtot 0.744278
 5170         oh    174    ccc     O4   5170 -0.56822625  16.000000   ; qtot -0.096533
 5171         ho    174    ccc    H16   5171 0.4186155   1.008000   ; qtot 0.429542
 5172         os    174    ccc     O5   5172 -0.42966500  16.000000   ; qtot -0.000123
; residue  175 ccc rtp ccc q 0.0
 5173         c3    175    ccc     C1   5173 0.50749700  12.010000   ; qtot 0.507374
 5174         h1    175    ccc     H1   5174 -0.02808400   1.008000   ; qtot 0.479290
 5175         h1    175    ccc     H2   5175 -0.02808400   1.008000   ; qtot 0.451206
 5176         c3    175    ccc     C2   5176 -0.15486000  12.010000   ; qtot 0.296346
 5177         hc    175    ccc     H3   5177 0.10266400   1.008000   ; qtot 0.399010
 5178         hc    175    ccc     H4   5178 0.10266400   1.008000   ; qtot 0.501674
 5179         c3    175    ccc     C3   5179 -0.15693500  12.010000   ; qtot 0.344739
 5180         h1    175    ccc     H5   5180 0.08499200   1.008000   ; qtot 0.429731
 5181         h1    175    ccc     H6   5181 0.08499200   1.008000   ; qtot 0.514723
 5182         n3    175    ccc     N1   5182 -0.29948700  14.010000   ; qtot 0.215236
 5183         c3    175    ccc     C4   5183 -0.01321200  12.010000   ; qtot 0.202024
 5184         h1    175    ccc     H7   5184 0.08172200   1.008000   ; qtot 0.283746
 5185         h1    175    ccc     H8   5185 0.08172200   1.008000   ; qtot 0.365468
 5186         c3    175    ccc     C5   5186 -0.22180000  12.010000   ; qtot 0.143668
 5187         hc    175    ccc     H9   5187 0.09671800   1.008000   ; qtot 0.240386
 5188         hc    175    ccc    H10   5188 0.09671800   1.008000   ; qtot 0.337104
 5189          c    175    ccc     C6   5189 0.526324  12.010000   ; qtot 1.333631
 5190          o    175    ccc     O1   5190 -0.39142825  16.000000   ; qtot 0.637125
 5191         oh    175    ccc     O2   5191 -0.56822625  16.000000   ; qtot -0.203686
 5192         ho    175    ccc    H11   5192 0.4186155   1.008000   ; qtot 0.322389
 5193         c3    175    ccc     C7   5193 -0.01321200  12.010000   ; qtot 0.309177
 5194         h1    175    ccc    H12   5194 0.08172200   1.008000   ; qtot 0.390899
 5195         h1    175    ccc    H13   5195 0.08172200   1.008000   ; qtot 0.472621
 5196         c3    175    ccc     C8   5196 -0.22180000  12.010000   ; qtot 0.250821
 5197         hc    175    ccc    H14   5197 0.09671800   1.008000   ; qtot 0.347539
 5198         hc    175    ccc    H15   5198 0.09671800   1.008000   ; qtot 0.444257
 5199          c    175    ccc     C9   5199 0.526324  12.010000   ; qtot 1.440784
 5200          o    175    ccc     O3   5200 -0.39142825  16.000000   ; qtot 0.744278
 5201         oh    175    ccc     O4   5201 -0.56822625  16.000000   ; qtot -0.096533
 5202         ho    175    ccc    H16   5202 0.4186155   1.008000   ; qtot 0.429542
 5203         os    175    ccc     O5   5203 -0.42966500  16.000000   ; qtot -0.000123
; residue  176 ccc rtp ccc q 0.0
 5204         c3    176    ccc     C1   5204 0.50749700  12.010000   ; qtot 0.507374
 5205         h1    176    ccc     H1   5205 -0.02808400   1.008000   ; qtot 0.479290
 5206         h1    176    ccc     H2   5206 -0.02808400   1.008000   ; qtot 0.451206
 5207         c3    176    ccc     C2   5207 -0.15486000  12.010000   ; qtot 0.296346
 5208         hc    176    ccc     H3   5208 0.10266400   1.008000   ; qtot 0.399010
 5209         hc    176    ccc     H4   5209 0.10266400   1.008000   ; qtot 0.501674
 5210         c3    176    ccc     C3   5210 -0.15693500  12.010000   ; qtot 0.344739
 5211         h1    176    ccc     H5   5211 0.08499200   1.008000   ; qtot 0.429731
 5212         h1    176    ccc     H6   5212 0.08499200   1.008000   ; qtot 0.514723
 5213         n3    176    ccc     N1   5213 -0.29948700  14.010000   ; qtot 0.215236
 5214         c3    176    ccc     C4   5214 -0.01321200  12.010000   ; qtot 0.202024
 5215         h1    176    ccc     H7   5215 0.08172200   1.008000   ; qtot 0.283746
 5216         h1    176    ccc     H8   5216 0.08172200   1.008000   ; qtot 0.365468
 5217         c3    176    ccc     C5   5217 -0.22180000  12.010000   ; qtot 0.143668
 5218         hc    176    ccc     H9   5218 0.09671800   1.008000   ; qtot 0.240386
 5219         hc    176    ccc    H10   5219 0.09671800   1.008000   ; qtot 0.337104
 5220          c    176    ccc     C6   5220 0.526324  12.010000   ; qtot 1.333631
 5221          o    176    ccc     O1   5221 -0.39142825  16.000000   ; qtot 0.637125
 5222         oh    176    ccc     O2   5222 -0.56822625  16.000000   ; qtot -0.203686
 5223         ho    176    ccc    H11   5223 0.4186155   1.008000   ; qtot 0.322389
 5224         c3    176    ccc     C7   5224 -0.01321200  12.010000   ; qtot 0.309177
 5225         h1    176    ccc    H12   5225 0.08172200   1.008000   ; qtot 0.390899
 5226         h1    176    ccc    H13   5226 0.08172200   1.008000   ; qtot 0.472621
 5227         c3    176    ccc     C8   5227 -0.22180000  12.010000   ; qtot 0.250821
 5228         hc    176    ccc    H14   5228 0.09671800   1.008000   ; qtot 0.347539
 5229         hc    176    ccc    H15   5229 0.09671800   1.008000   ; qtot 0.444257
 5230          c    176    ccc     C9   5230 0.526324  12.010000   ; qtot 1.440784
 5231          o    176    ccc     O3   5231 -0.39142825  16.000000   ; qtot 0.744278
 5232         oh    176    ccc     O4   5232 -0.56822625  16.000000   ; qtot -0.096533
 5233         ho    176    ccc    H16   5233 0.4186155   1.008000   ; qtot 0.429542
 5234         os    176    ccc     O5   5234 -0.42966500  16.000000   ; qtot -0.000123
; residue  177 ccc rtp ccc q 0.0
 5235         c3    177    ccc     C1   5235 0.50749700  12.010000   ; qtot 0.507374
 5236         h1    177    ccc     H1   5236 -0.02808400   1.008000   ; qtot 0.479290
 5237         h1    177    ccc     H2   5237 -0.02808400   1.008000   ; qtot 0.451206
 5238         c3    177    ccc     C2   5238 -0.15486000  12.010000   ; qtot 0.296346
 5239         hc    177    ccc     H3   5239 0.10266400   1.008000   ; qtot 0.399010
 5240         hc    177    ccc     H4   5240 0.10266400   1.008000   ; qtot 0.501674
 5241         c3    177    ccc     C3   5241 -0.15693500  12.010000   ; qtot 0.344739
 5242         h1    177    ccc     H5   5242 0.08499200   1.008000   ; qtot 0.429731
 5243         h1    177    ccc     H6   5243 0.08499200   1.008000   ; qtot 0.514723
 5244         n3    177    ccc     N1   5244 -0.29948700  14.010000   ; qtot 0.215236
 5245         c3    177    ccc     C4   5245 -0.01321200  12.010000   ; qtot 0.202024
 5246         h1    177    ccc     H7   5246 0.08172200   1.008000   ; qtot 0.283746
 5247         h1    177    ccc     H8   5247 0.08172200   1.008000   ; qtot 0.365468
 5248         c3    177    ccc     C5   5248 -0.22180000  12.010000   ; qtot 0.143668
 5249         hc    177    ccc     H9   5249 0.09671800   1.008000   ; qtot 0.240386
 5250         hc    177    ccc    H10   5250 0.09671800   1.008000   ; qtot 0.337104
 5251          c    177    ccc     C6   5251 0.526324  12.010000   ; qtot 1.333631
 5252          o    177    ccc     O1   5252 -0.39142825  16.000000   ; qtot 0.637125
 5253         oh    177    ccc     O2   5253 -0.56822625  16.000000   ; qtot -0.203686
 5254         ho    177    ccc    H11   5254 0.4186155   1.008000   ; qtot 0.322389
 5255         c3    177    ccc     C7   5255 -0.01321200  12.010000   ; qtot 0.309177
 5256         h1    177    ccc    H12   5256 0.08172200   1.008000   ; qtot 0.390899
 5257         h1    177    ccc    H13   5257 0.08172200   1.008000   ; qtot 0.472621
 5258         c3    177    ccc     C8   5258 -0.22180000  12.010000   ; qtot 0.250821
 5259         hc    177    ccc    H14   5259 0.09671800   1.008000   ; qtot 0.347539
 5260         hc    177    ccc    H15   5260 0.09671800   1.008000   ; qtot 0.444257
 5261          c    177    ccc     C9   5261 0.526324  12.010000   ; qtot 1.440784
 5262          o    177    ccc     O3   5262 -0.39142825  16.000000   ; qtot 0.744278
 5263         oh    177    ccc     O4   5263 -0.56822625  16.000000   ; qtot -0.096533
 5264         ho    177    ccc    H16   5264 0.4186155   1.008000   ; qtot 0.429542
 5265         os    177    ccc     O5   5265 -0.42966500  16.000000   ; qtot -0.000123
; residue  178 ccc rtp ccc q 0.0
 5266         c3    178    ccc     C1   5266 0.50749700  12.010000   ; qtot 0.507374
 5267         h1    178    ccc     H1   5267 -0.02808400   1.008000   ; qtot 0.479290
 5268         h1    178    ccc     H2   5268 -0.02808400   1.008000   ; qtot 0.451206
 5269         c3    178    ccc     C2   5269 -0.15486000  12.010000   ; qtot 0.296346
 5270         hc    178    ccc     H3   5270 0.10266400   1.008000   ; qtot 0.399010
 5271         hc    178    ccc     H4   5271 0.10266400   1.008000   ; qtot 0.501674
 5272         c3    178    ccc     C3   5272 -0.15693500  12.010000   ; qtot 0.344739
 5273         h1    178    ccc     H5   5273 0.08499200   1.008000   ; qtot 0.429731
 5274         h1    178    ccc     H6   5274 0.08499200   1.008000   ; qtot 0.514723
 5275         n3    178    ccc     N1   5275 -0.29948700  14.010000   ; qtot 0.215236
 5276         c3    178    ccc     C4   5276 -0.01321200  12.010000   ; qtot 0.202024
 5277         h1    178    ccc     H7   5277 0.08172200   1.008000   ; qtot 0.283746
 5278         h1    178    ccc     H8   5278 0.08172200   1.008000   ; qtot 0.365468
 5279         c3    178    ccc     C5   5279 -0.22180000  12.010000   ; qtot 0.143668
 5280         hc    178    ccc     H9   5280 0.09671800   1.008000   ; qtot 0.240386
 5281         hc    178    ccc    H10   5281 0.09671800   1.008000   ; qtot 0.337104
 5282          c    178    ccc     C6   5282 0.526324  12.010000   ; qtot 1.333631
 5283          o    178    ccc     O1   5283 -0.39142825  16.000000   ; qtot 0.637125
 5284         oh    178    ccc     O2   5284 -0.56822625  16.000000   ; qtot -0.203686
 5285         ho    178    ccc    H11   5285 0.4186155   1.008000   ; qtot 0.322389
 5286         c3    178    ccc     C7   5286 -0.01321200  12.010000   ; qtot 0.309177
 5287         h1    178    ccc    H12   5287 0.08172200   1.008000   ; qtot 0.390899
 5288         h1    178    ccc    H13   5288 0.08172200   1.008000   ; qtot 0.472621
 5289         c3    178    ccc     C8   5289 -0.22180000  12.010000   ; qtot 0.250821
 5290         hc    178    ccc    H14   5290 0.09671800   1.008000   ; qtot 0.347539
 5291         hc    178    ccc    H15   5291 0.09671800   1.008000   ; qtot 0.444257
 5292          c    178    ccc     C9   5292 0.526324  12.010000   ; qtot 1.440784
 5293          o    178    ccc     O3   5293 -0.39142825  16.000000   ; qtot 0.744278
 5294         oh    178    ccc     O4   5294 -0.56822625  16.000000   ; qtot -0.096533
 5295         ho    178    ccc    H16   5295 0.4186155   1.008000   ; qtot 0.429542
 5296         os    178    ccc     O5   5296 -0.42966500  16.000000   ; qtot -0.000123
; residue  179 ccc rtp ccc q 0.0
 5297         c3    179    ccc     C1   5297 0.50749700  12.010000   ; qtot 0.507374
 5298         h1    179    ccc     H1   5298 -0.02808400   1.008000   ; qtot 0.479290
 5299         h1    179    ccc     H2   5299 -0.02808400   1.008000   ; qtot 0.451206
 5300         c3    179    ccc     C2   5300 -0.15486000  12.010000   ; qtot 0.296346
 5301         hc    179    ccc     H3   5301 0.10266400   1.008000   ; qtot 0.399010
 5302         hc    179    ccc     H4   5302 0.10266400   1.008000   ; qtot 0.501674
 5303         c3    179    ccc     C3   5303 -0.15693500  12.010000   ; qtot 0.344739
 5304         h1    179    ccc     H5   5304 0.08499200   1.008000   ; qtot 0.429731
 5305         h1    179    ccc     H6   5305 0.08499200   1.008000   ; qtot 0.514723
 5306         n3    179    ccc     N1   5306 -0.29948700  14.010000   ; qtot 0.215236
 5307         c3    179    ccc     C4   5307 -0.01321200  12.010000   ; qtot 0.202024
 5308         h1    179    ccc     H7   5308 0.08172200   1.008000   ; qtot 0.283746
 5309         h1    179    ccc     H8   5309 0.08172200   1.008000   ; qtot 0.365468
 5310         c3    179    ccc     C5   5310 -0.22180000  12.010000   ; qtot 0.143668
 5311         hc    179    ccc     H9   5311 0.09671800   1.008000   ; qtot 0.240386
 5312         hc    179    ccc    H10   5312 0.09671800   1.008000   ; qtot 0.337104
 5313          c    179    ccc     C6   5313 0.526324  12.010000   ; qtot 1.333631
 5314          o    179    ccc     O1   5314 -0.39142825  16.000000   ; qtot 0.637125
 5315         oh    179    ccc     O2   5315 -0.56822625  16.000000   ; qtot -0.203686
 5316         ho    179    ccc    H11   5316 0.4186155   1.008000   ; qtot 0.322389
 5317         c3    179    ccc     C7   5317 -0.01321200  12.010000   ; qtot 0.309177
 5318         h1    179    ccc    H12   5318 0.08172200   1.008000   ; qtot 0.390899
 5319         h1    179    ccc    H13   5319 0.08172200   1.008000   ; qtot 0.472621
 5320         c3    179    ccc     C8   5320 -0.22180000  12.010000   ; qtot 0.250821
 5321         hc    179    ccc    H14   5321 0.09671800   1.008000   ; qtot 0.347539
 5322         hc    179    ccc    H15   5322 0.09671800   1.008000   ; qtot 0.444257
 5323          c    179    ccc     C9   5323 0.526324  12.010000   ; qtot 1.440784
 5324          o    179    ccc     O3   5324 -0.39142825  16.000000   ; qtot 0.744278
 5325         oh    179    ccc     O4   5325 -0.56822625  16.000000   ; qtot -0.096533
 5326         ho    179    ccc    H16   5326 0.4186155   1.008000   ; qtot 0.429542
 5327         os    179    ccc     O5   5327 -0.42966500  16.000000   ; qtot -0.000123
; residue  180 ccc rtp ccc q 0.0
 5328         c3    180    ccc     C1   5328 0.50749700  12.010000   ; qtot 0.507374
 5329         h1    180    ccc     H1   5329 -0.02808400   1.008000   ; qtot 0.479290
 5330         h1    180    ccc     H2   5330 -0.02808400   1.008000   ; qtot 0.451206
 5331         c3    180    ccc     C2   5331 -0.15486000  12.010000   ; qtot 0.296346
 5332         hc    180    ccc     H3   5332 0.10266400   1.008000   ; qtot 0.399010
 5333         hc    180    ccc     H4   5333 0.10266400   1.008000   ; qtot 0.501674
 5334         c3    180    ccc     C3   5334 -0.15693500  12.010000   ; qtot 0.344739
 5335         h1    180    ccc     H5   5335 0.08499200   1.008000   ; qtot 0.429731
 5336         h1    180    ccc     H6   5336 0.08499200   1.008000   ; qtot 0.514723
 5337         n3    180    ccc     N1   5337 -0.29948700  14.010000   ; qtot 0.215236
 5338         c3    180    ccc     C4   5338 -0.01321200  12.010000   ; qtot 0.202024
 5339         h1    180    ccc     H7   5339 0.08172200   1.008000   ; qtot 0.283746
 5340         h1    180    ccc     H8   5340 0.08172200   1.008000   ; qtot 0.365468
 5341         c3    180    ccc     C5   5341 -0.22180000  12.010000   ; qtot 0.143668
 5342         hc    180    ccc     H9   5342 0.09671800   1.008000   ; qtot 0.240386
 5343         hc    180    ccc    H10   5343 0.09671800   1.008000   ; qtot 0.337104
 5344          c    180    ccc     C6   5344 0.526324  12.010000   ; qtot 1.333631
 5345          o    180    ccc     O1   5345 -0.39142825  16.000000   ; qtot 0.637125
 5346         oh    180    ccc     O2   5346 -0.56822625  16.000000   ; qtot -0.203686
 5347         ho    180    ccc    H11   5347 0.4186155   1.008000   ; qtot 0.322389
 5348         c3    180    ccc     C7   5348 -0.01321200  12.010000   ; qtot 0.309177
 5349         h1    180    ccc    H12   5349 0.08172200   1.008000   ; qtot 0.390899
 5350         h1    180    ccc    H13   5350 0.08172200   1.008000   ; qtot 0.472621
 5351         c3    180    ccc     C8   5351 -0.22180000  12.010000   ; qtot 0.250821
 5352         hc    180    ccc    H14   5352 0.09671800   1.008000   ; qtot 0.347539
 5353         hc    180    ccc    H15   5353 0.09671800   1.008000   ; qtot 0.444257
 5354          c    180    ccc     C9   5354 0.526324  12.010000   ; qtot 1.440784
 5355          o    180    ccc     O3   5355 -0.39142825  16.000000   ; qtot 0.744278
 5356         oh    180    ccc     O4   5356 -0.56822625  16.000000   ; qtot -0.096533
 5357         ho    180    ccc    H16   5357 0.4186155   1.008000   ; qtot 0.429542
 5358         os    180    ccc     O5   5358 -0.42966500  16.000000   ; qtot -0.000123
; residue  181 ccc rtp ccc q 0.0
 5359         c3    181    ccc     C1   5359 0.50749700  12.010000   ; qtot 0.507374
 5360         h1    181    ccc     H1   5360 -0.02808400   1.008000   ; qtot 0.479290
 5361         h1    181    ccc     H2   5361 -0.02808400   1.008000   ; qtot 0.451206
 5362         c3    181    ccc     C2   5362 -0.15486000  12.010000   ; qtot 0.296346
 5363         hc    181    ccc     H3   5363 0.10266400   1.008000   ; qtot 0.399010
 5364         hc    181    ccc     H4   5364 0.10266400   1.008000   ; qtot 0.501674
 5365         c3    181    ccc     C3   5365 -0.15693500  12.010000   ; qtot 0.344739
 5366         h1    181    ccc     H5   5366 0.08499200   1.008000   ; qtot 0.429731
 5367         h1    181    ccc     H6   5367 0.08499200   1.008000   ; qtot 0.514723
 5368         n3    181    ccc     N1   5368 -0.29948700  14.010000   ; qtot 0.215236
 5369         c3    181    ccc     C4   5369 -0.01321200  12.010000   ; qtot 0.202024
 5370         h1    181    ccc     H7   5370 0.08172200   1.008000   ; qtot 0.283746
 5371         h1    181    ccc     H8   5371 0.08172200   1.008000   ; qtot 0.365468
 5372         c3    181    ccc     C5   5372 -0.22180000  12.010000   ; qtot 0.143668
 5373         hc    181    ccc     H9   5373 0.09671800   1.008000   ; qtot 0.240386
 5374         hc    181    ccc    H10   5374 0.09671800   1.008000   ; qtot 0.337104
 5375          c    181    ccc     C6   5375 0.526324  12.010000   ; qtot 1.333631
 5376          o    181    ccc     O1   5376 -0.39142825  16.000000   ; qtot 0.637125
 5377         oh    181    ccc     O2   5377 -0.56822625  16.000000   ; qtot -0.203686
 5378         ho    181    ccc    H11   5378 0.4186155   1.008000   ; qtot 0.322389
 5379         c3    181    ccc     C7   5379 -0.01321200  12.010000   ; qtot 0.309177
 5380         h1    181    ccc    H12   5380 0.08172200   1.008000   ; qtot 0.390899
 5381         h1    181    ccc    H13   5381 0.08172200   1.008000   ; qtot 0.472621
 5382         c3    181    ccc     C8   5382 -0.22180000  12.010000   ; qtot 0.250821
 5383         hc    181    ccc    H14   5383 0.09671800   1.008000   ; qtot 0.347539
 5384         hc    181    ccc    H15   5384 0.09671800   1.008000   ; qtot 0.444257
 5385          c    181    ccc     C9   5385 0.526324  12.010000   ; qtot 1.440784
 5386          o    181    ccc     O3   5386 -0.39142825  16.000000   ; qtot 0.744278
 5387         oh    181    ccc     O4   5387 -0.56822625  16.000000   ; qtot -0.096533
 5388         ho    181    ccc    H16   5388 0.4186155   1.008000   ; qtot 0.429542
 5389         os    181    ccc     O5   5389 -0.42966500  16.000000   ; qtot -0.000123
; residue  182 ccc rtp ccc q 0.0
 5390         c3    182    ccc     C1   5390 0.50749700  12.010000   ; qtot 0.507374
 5391         h1    182    ccc     H1   5391 -0.02808400   1.008000   ; qtot 0.479290
 5392         h1    182    ccc     H2   5392 -0.02808400   1.008000   ; qtot 0.451206
 5393         c3    182    ccc     C2   5393 -0.15486000  12.010000   ; qtot 0.296346
 5394         hc    182    ccc     H3   5394 0.10266400   1.008000   ; qtot 0.399010
 5395         hc    182    ccc     H4   5395 0.10266400   1.008000   ; qtot 0.501674
 5396         c3    182    ccc     C3   5396 -0.15693500  12.010000   ; qtot 0.344739
 5397         h1    182    ccc     H5   5397 0.08499200   1.008000   ; qtot 0.429731
 5398         h1    182    ccc     H6   5398 0.08499200   1.008000   ; qtot 0.514723
 5399         n3    182    ccc     N1   5399 -0.29948700  14.010000   ; qtot 0.215236
 5400         c3    182    ccc     C4   5400 -0.01321200  12.010000   ; qtot 0.202024
 5401         h1    182    ccc     H7   5401 0.08172200   1.008000   ; qtot 0.283746
 5402         h1    182    ccc     H8   5402 0.08172200   1.008000   ; qtot 0.365468
 5403         c3    182    ccc     C5   5403 -0.22180000  12.010000   ; qtot 0.143668
 5404         hc    182    ccc     H9   5404 0.09671800   1.008000   ; qtot 0.240386
 5405         hc    182    ccc    H10   5405 0.09671800   1.008000   ; qtot 0.337104
 5406          c    182    ccc     C6   5406 0.526324  12.010000   ; qtot 1.333631
 5407          o    182    ccc     O1   5407 -0.39142825  16.000000   ; qtot 0.637125
 5408         oh    182    ccc     O2   5408 -0.56822625  16.000000   ; qtot -0.203686
 5409         ho    182    ccc    H11   5409 0.4186155   1.008000   ; qtot 0.322389
 5410         c3    182    ccc     C7   5410 -0.01321200  12.010000   ; qtot 0.309177
 5411         h1    182    ccc    H12   5411 0.08172200   1.008000   ; qtot 0.390899
 5412         h1    182    ccc    H13   5412 0.08172200   1.008000   ; qtot 0.472621
 5413         c3    182    ccc     C8   5413 -0.22180000  12.010000   ; qtot 0.250821
 5414         hc    182    ccc    H14   5414 0.09671800   1.008000   ; qtot 0.347539
 5415         hc    182    ccc    H15   5415 0.09671800   1.008000   ; qtot 0.444257
 5416          c    182    ccc     C9   5416 0.526324  12.010000   ; qtot 1.440784
 5417          o    182    ccc     O3   5417 -0.39142825  16.000000   ; qtot 0.744278
 5418         oh    182    ccc     O4   5418 -0.56822625  16.000000   ; qtot -0.096533
 5419         ho    182    ccc    H16   5419 0.4186155   1.008000   ; qtot 0.429542
 5420         os    182    ccc     O5   5420 -0.42966500  16.000000   ; qtot -0.000123
; residue  183 ccc rtp ccc q 0.0
 5421         c3    183    ccc     C1   5421 0.50749700  12.010000   ; qtot 0.507374
 5422         h1    183    ccc     H1   5422 -0.02808400   1.008000   ; qtot 0.479290
 5423         h1    183    ccc     H2   5423 -0.02808400   1.008000   ; qtot 0.451206
 5424         c3    183    ccc     C2   5424 -0.15486000  12.010000   ; qtot 0.296346
 5425         hc    183    ccc     H3   5425 0.10266400   1.008000   ; qtot 0.399010
 5426         hc    183    ccc     H4   5426 0.10266400   1.008000   ; qtot 0.501674
 5427         c3    183    ccc     C3   5427 -0.15693500  12.010000   ; qtot 0.344739
 5428         h1    183    ccc     H5   5428 0.08499200   1.008000   ; qtot 0.429731
 5429         h1    183    ccc     H6   5429 0.08499200   1.008000   ; qtot 0.514723
 5430         n3    183    ccc     N1   5430 -0.29948700  14.010000   ; qtot 0.215236
 5431         c3    183    ccc     C4   5431 -0.01321200  12.010000   ; qtot 0.202024
 5432         h1    183    ccc     H7   5432 0.08172200   1.008000   ; qtot 0.283746
 5433         h1    183    ccc     H8   5433 0.08172200   1.008000   ; qtot 0.365468
 5434         c3    183    ccc     C5   5434 -0.22180000  12.010000   ; qtot 0.143668
 5435         hc    183    ccc     H9   5435 0.09671800   1.008000   ; qtot 0.240386
 5436         hc    183    ccc    H10   5436 0.09671800   1.008000   ; qtot 0.337104
 5437          c    183    ccc     C6   5437 0.526324  12.010000   ; qtot 1.333631
 5438          o    183    ccc     O1   5438 -0.39142825  16.000000   ; qtot 0.637125
 5439         oh    183    ccc     O2   5439 -0.56822625  16.000000   ; qtot -0.203686
 5440         ho    183    ccc    H11   5440 0.4186155   1.008000   ; qtot 0.322389
 5441         c3    183    ccc     C7   5441 -0.01321200  12.010000   ; qtot 0.309177
 5442         h1    183    ccc    H12   5442 0.08172200   1.008000   ; qtot 0.390899
 5443         h1    183    ccc    H13   5443 0.08172200   1.008000   ; qtot 0.472621
 5444         c3    183    ccc     C8   5444 -0.22180000  12.010000   ; qtot 0.250821
 5445         hc    183    ccc    H14   5445 0.09671800   1.008000   ; qtot 0.347539
 5446         hc    183    ccc    H15   5446 0.09671800   1.008000   ; qtot 0.444257
 5447          c    183    ccc     C9   5447 0.526324  12.010000   ; qtot 1.440784
 5448          o    183    ccc     O3   5448 -0.39142825  16.000000   ; qtot 0.744278
 5449         oh    183    ccc     O4   5449 -0.56822625  16.000000   ; qtot -0.096533
 5450         ho    183    ccc    H16   5450 0.4186155   1.008000   ; qtot 0.429542
 5451         os    183    ccc     O5   5451 -0.42966500  16.000000   ; qtot -0.000123
; residue  184 ccc rtp ccc q 0.0
 5452         c3    184    ccc     C1   5452 0.50749700  12.010000   ; qtot 0.507374
 5453         h1    184    ccc     H1   5453 -0.02808400   1.008000   ; qtot 0.479290
 5454         h1    184    ccc     H2   5454 -0.02808400   1.008000   ; qtot 0.451206
 5455         c3    184    ccc     C2   5455 -0.15486000  12.010000   ; qtot 0.296346
 5456         hc    184    ccc     H3   5456 0.10266400   1.008000   ; qtot 0.399010
 5457         hc    184    ccc     H4   5457 0.10266400   1.008000   ; qtot 0.501674
 5458         c3    184    ccc     C3   5458 -0.15693500  12.010000   ; qtot 0.344739
 5459         h1    184    ccc     H5   5459 0.08499200   1.008000   ; qtot 0.429731
 5460         h1    184    ccc     H6   5460 0.08499200   1.008000   ; qtot 0.514723
 5461         n3    184    ccc     N1   5461 -0.29948700  14.010000   ; qtot 0.215236
 5462         c3    184    ccc     C4   5462 -0.01321200  12.010000   ; qtot 0.202024
 5463         h1    184    ccc     H7   5463 0.08172200   1.008000   ; qtot 0.283746
 5464         h1    184    ccc     H8   5464 0.08172200   1.008000   ; qtot 0.365468
 5465         c3    184    ccc     C5   5465 -0.22180000  12.010000   ; qtot 0.143668
 5466         hc    184    ccc     H9   5466 0.09671800   1.008000   ; qtot 0.240386
 5467         hc    184    ccc    H10   5467 0.09671800   1.008000   ; qtot 0.337104
 5468          c    184    ccc     C6   5468 0.526324  12.010000   ; qtot 1.333631
 5469          o    184    ccc     O1   5469 -0.39142825  16.000000   ; qtot 0.637125
 5470         oh    184    ccc     O2   5470 -0.56822625  16.000000   ; qtot -0.203686
 5471         ho    184    ccc    H11   5471 0.4186155   1.008000   ; qtot 0.322389
 5472         c3    184    ccc     C7   5472 -0.01321200  12.010000   ; qtot 0.309177
 5473         h1    184    ccc    H12   5473 0.08172200   1.008000   ; qtot 0.390899
 5474         h1    184    ccc    H13   5474 0.08172200   1.008000   ; qtot 0.472621
 5475         c3    184    ccc     C8   5475 -0.22180000  12.010000   ; qtot 0.250821
 5476         hc    184    ccc    H14   5476 0.09671800   1.008000   ; qtot 0.347539
 5477         hc    184    ccc    H15   5477 0.09671800   1.008000   ; qtot 0.444257
 5478          c    184    ccc     C9   5478 0.526324  12.010000   ; qtot 1.440784
 5479          o    184    ccc     O3   5479 -0.39142825  16.000000   ; qtot 0.744278
 5480         oh    184    ccc     O4   5480 -0.56822625  16.000000   ; qtot -0.096533
 5481         ho    184    ccc    H16   5481 0.4186155   1.008000   ; qtot 0.429542
 5482         os    184    ccc     O5   5482 -0.42966500  16.000000   ; qtot -0.000123
; residue  185 ccc rtp ccc q 0.0
 5483         c3    185    ccc     C1   5483 0.50749700  12.010000   ; qtot 0.507374
 5484         h1    185    ccc     H1   5484 -0.02808400   1.008000   ; qtot 0.479290
 5485         h1    185    ccc     H2   5485 -0.02808400   1.008000   ; qtot 0.451206
 5486         c3    185    ccc     C2   5486 -0.15486000  12.010000   ; qtot 0.296346
 5487         hc    185    ccc     H3   5487 0.10266400   1.008000   ; qtot 0.399010
 5488         hc    185    ccc     H4   5488 0.10266400   1.008000   ; qtot 0.501674
 5489         c3    185    ccc     C3   5489 -0.15693500  12.010000   ; qtot 0.344739
 5490         h1    185    ccc     H5   5490 0.08499200   1.008000   ; qtot 0.429731
 5491         h1    185    ccc     H6   5491 0.08499200   1.008000   ; qtot 0.514723
 5492         n3    185    ccc     N1   5492 -0.29948700  14.010000   ; qtot 0.215236
 5493         c3    185    ccc     C4   5493 -0.01321200  12.010000   ; qtot 0.202024
 5494         h1    185    ccc     H7   5494 0.08172200   1.008000   ; qtot 0.283746
 5495         h1    185    ccc     H8   5495 0.08172200   1.008000   ; qtot 0.365468
 5496         c3    185    ccc     C5   5496 -0.22180000  12.010000   ; qtot 0.143668
 5497         hc    185    ccc     H9   5497 0.09671800   1.008000   ; qtot 0.240386
 5498         hc    185    ccc    H10   5498 0.09671800   1.008000   ; qtot 0.337104
 5499          c    185    ccc     C6   5499 0.526324  12.010000   ; qtot 1.333631
 5500          o    185    ccc     O1   5500 -0.39142825  16.000000   ; qtot 0.637125
 5501         oh    185    ccc     O2   5501 -0.56822625  16.000000   ; qtot -0.203686
 5502         ho    185    ccc    H11   5502 0.4186155   1.008000   ; qtot 0.322389
 5503         c3    185    ccc     C7   5503 -0.01321200  12.010000   ; qtot 0.309177
 5504         h1    185    ccc    H12   5504 0.08172200   1.008000   ; qtot 0.390899
 5505         h1    185    ccc    H13   5505 0.08172200   1.008000   ; qtot 0.472621
 5506         c3    185    ccc     C8   5506 -0.22180000  12.010000   ; qtot 0.250821
 5507         hc    185    ccc    H14   5507 0.09671800   1.008000   ; qtot 0.347539
 5508         hc    185    ccc    H15   5508 0.09671800   1.008000   ; qtot 0.444257
 5509          c    185    ccc     C9   5509 0.526324  12.010000   ; qtot 1.440784
 5510          o    185    ccc     O3   5510 -0.39142825  16.000000   ; qtot 0.744278
 5511         oh    185    ccc     O4   5511 -0.56822625  16.000000   ; qtot -0.096533
 5512         ho    185    ccc    H16   5512 0.4186155   1.008000   ; qtot 0.429542
 5513         os    185    ccc     O5   5513 -0.42966500  16.000000   ; qtot -0.000123
; residue  186 ccc rtp ccc q 0.0
 5514         c3    186    ccc     C1   5514 0.50749700  12.010000   ; qtot 0.507374
 5515         h1    186    ccc     H1   5515 -0.02808400   1.008000   ; qtot 0.479290
 5516         h1    186    ccc     H2   5516 -0.02808400   1.008000   ; qtot 0.451206
 5517         c3    186    ccc     C2   5517 -0.15486000  12.010000   ; qtot 0.296346
 5518         hc    186    ccc     H3   5518 0.10266400   1.008000   ; qtot 0.399010
 5519         hc    186    ccc     H4   5519 0.10266400   1.008000   ; qtot 0.501674
 5520         c3    186    ccc     C3   5520 -0.15693500  12.010000   ; qtot 0.344739
 5521         h1    186    ccc     H5   5521 0.08499200   1.008000   ; qtot 0.429731
 5522         h1    186    ccc     H6   5522 0.08499200   1.008000   ; qtot 0.514723
 5523         n3    186    ccc     N1   5523 -0.29948700  14.010000   ; qtot 0.215236
 5524         c3    186    ccc     C4   5524 -0.01321200  12.010000   ; qtot 0.202024
 5525         h1    186    ccc     H7   5525 0.08172200   1.008000   ; qtot 0.283746
 5526         h1    186    ccc     H8   5526 0.08172200   1.008000   ; qtot 0.365468
 5527         c3    186    ccc     C5   5527 -0.22180000  12.010000   ; qtot 0.143668
 5528         hc    186    ccc     H9   5528 0.09671800   1.008000   ; qtot 0.240386
 5529         hc    186    ccc    H10   5529 0.09671800   1.008000   ; qtot 0.337104
 5530          c    186    ccc     C6   5530 0.526324  12.010000   ; qtot 1.333631
 5531          o    186    ccc     O1   5531 -0.39142825  16.000000   ; qtot 0.637125
 5532         oh    186    ccc     O2   5532 -0.56822625  16.000000   ; qtot -0.203686
 5533         ho    186    ccc    H11   5533 0.4186155   1.008000   ; qtot 0.322389
 5534         c3    186    ccc     C7   5534 -0.01321200  12.010000   ; qtot 0.309177
 5535         h1    186    ccc    H12   5535 0.08172200   1.008000   ; qtot 0.390899
 5536         h1    186    ccc    H13   5536 0.08172200   1.008000   ; qtot 0.472621
 5537         c3    186    ccc     C8   5537 -0.22180000  12.010000   ; qtot 0.250821
 5538         hc    186    ccc    H14   5538 0.09671800   1.008000   ; qtot 0.347539
 5539         hc    186    ccc    H15   5539 0.09671800   1.008000   ; qtot 0.444257
 5540          c    186    ccc     C9   5540 0.526324  12.010000   ; qtot 1.440784
 5541          o    186    ccc     O3   5541 -0.39142825  16.000000   ; qtot 0.744278
 5542         oh    186    ccc     O4   5542 -0.56822625  16.000000   ; qtot -0.096533
 5543         ho    186    ccc    H16   5543 0.4186155   1.008000   ; qtot 0.429542
 5544         os    186    ccc     O5   5544 -0.42966500  16.000000   ; qtot -0.000123
; residue  187 ccc rtp ccc q 0.0
 5545         c3    187    ccc     C1   5545 0.50749700  12.010000   ; qtot 0.507374
 5546         h1    187    ccc     H1   5546 -0.02808400   1.008000   ; qtot 0.479290
 5547         h1    187    ccc     H2   5547 -0.02808400   1.008000   ; qtot 0.451206
 5548         c3    187    ccc     C2   5548 -0.15486000  12.010000   ; qtot 0.296346
 5549         hc    187    ccc     H3   5549 0.10266400   1.008000   ; qtot 0.399010
 5550         hc    187    ccc     H4   5550 0.10266400   1.008000   ; qtot 0.501674
 5551         c3    187    ccc     C3   5551 -0.15693500  12.010000   ; qtot 0.344739
 5552         h1    187    ccc     H5   5552 0.08499200   1.008000   ; qtot 0.429731
 5553         h1    187    ccc     H6   5553 0.08499200   1.008000   ; qtot 0.514723
 5554         n3    187    ccc     N1   5554 -0.29948700  14.010000   ; qtot 0.215236
 5555         c3    187    ccc     C4   5555 -0.01321200  12.010000   ; qtot 0.202024
 5556         h1    187    ccc     H7   5556 0.08172200   1.008000   ; qtot 0.283746
 5557         h1    187    ccc     H8   5557 0.08172200   1.008000   ; qtot 0.365468
 5558         c3    187    ccc     C5   5558 -0.22180000  12.010000   ; qtot 0.143668
 5559         hc    187    ccc     H9   5559 0.09671800   1.008000   ; qtot 0.240386
 5560         hc    187    ccc    H10   5560 0.09671800   1.008000   ; qtot 0.337104
 5561          c    187    ccc     C6   5561 0.526324  12.010000   ; qtot 1.333631
 5562          o    187    ccc     O1   5562 -0.39142825  16.000000   ; qtot 0.637125
 5563         oh    187    ccc     O2   5563 -0.56822625  16.000000   ; qtot -0.203686
 5564         ho    187    ccc    H11   5564 0.4186155   1.008000   ; qtot 0.322389
 5565         c3    187    ccc     C7   5565 -0.01321200  12.010000   ; qtot 0.309177
 5566         h1    187    ccc    H12   5566 0.08172200   1.008000   ; qtot 0.390899
 5567         h1    187    ccc    H13   5567 0.08172200   1.008000   ; qtot 0.472621
 5568         c3    187    ccc     C8   5568 -0.22180000  12.010000   ; qtot 0.250821
 5569         hc    187    ccc    H14   5569 0.09671800   1.008000   ; qtot 0.347539
 5570         hc    187    ccc    H15   5570 0.09671800   1.008000   ; qtot 0.444257
 5571          c    187    ccc     C9   5571 0.526324  12.010000   ; qtot 1.440784
 5572          o    187    ccc     O3   5572 -0.39142825  16.000000   ; qtot 0.744278
 5573         oh    187    ccc     O4   5573 -0.56822625  16.000000   ; qtot -0.096533
 5574         ho    187    ccc    H16   5574 0.4186155   1.008000   ; qtot 0.429542
 5575         os    187    ccc     O5   5575 -0.42966500  16.000000   ; qtot -0.000123
; residue  188 ccc rtp ccc q 0.0
 5576         c3    188    ccc     C1   5576 0.50749700  12.010000   ; qtot 0.507374
 5577         h1    188    ccc     H1   5577 -0.02808400   1.008000   ; qtot 0.479290
 5578         h1    188    ccc     H2   5578 -0.02808400   1.008000   ; qtot 0.451206
 5579         c3    188    ccc     C2   5579 -0.15486000  12.010000   ; qtot 0.296346
 5580         hc    188    ccc     H3   5580 0.10266400   1.008000   ; qtot 0.399010
 5581         hc    188    ccc     H4   5581 0.10266400   1.008000   ; qtot 0.501674
 5582         c3    188    ccc     C3   5582 -0.15693500  12.010000   ; qtot 0.344739
 5583         h1    188    ccc     H5   5583 0.08499200   1.008000   ; qtot 0.429731
 5584         h1    188    ccc     H6   5584 0.08499200   1.008000   ; qtot 0.514723
 5585         n3    188    ccc     N1   5585 -0.29948700  14.010000   ; qtot 0.215236
 5586         c3    188    ccc     C4   5586 -0.01321200  12.010000   ; qtot 0.202024
 5587         h1    188    ccc     H7   5587 0.08172200   1.008000   ; qtot 0.283746
 5588         h1    188    ccc     H8   5588 0.08172200   1.008000   ; qtot 0.365468
 5589         c3    188    ccc     C5   5589 -0.22180000  12.010000   ; qtot 0.143668
 5590         hc    188    ccc     H9   5590 0.09671800   1.008000   ; qtot 0.240386
 5591         hc    188    ccc    H10   5591 0.09671800   1.008000   ; qtot 0.337104
 5592          c    188    ccc     C6   5592 0.526324  12.010000   ; qtot 1.333631
 5593          o    188    ccc     O1   5593 -0.39142825  16.000000   ; qtot 0.637125
 5594         oh    188    ccc     O2   5594 -0.56822625  16.000000   ; qtot -0.203686
 5595         ho    188    ccc    H11   5595 0.4186155   1.008000   ; qtot 0.322389
 5596         c3    188    ccc     C7   5596 -0.01321200  12.010000   ; qtot 0.309177
 5597         h1    188    ccc    H12   5597 0.08172200   1.008000   ; qtot 0.390899
 5598         h1    188    ccc    H13   5598 0.08172200   1.008000   ; qtot 0.472621
 5599         c3    188    ccc     C8   5599 -0.22180000  12.010000   ; qtot 0.250821
 5600         hc    188    ccc    H14   5600 0.09671800   1.008000   ; qtot 0.347539
 5601         hc    188    ccc    H15   5601 0.09671800   1.008000   ; qtot 0.444257
 5602          c    188    ccc     C9   5602 0.526324  12.010000   ; qtot 1.440784
 5603          o    188    ccc     O3   5603 -0.39142825  16.000000   ; qtot 0.744278
 5604         oh    188    ccc     O4   5604 -0.56822625  16.000000   ; qtot -0.096533
 5605         ho    188    ccc    H16   5605 0.4186155   1.008000   ; qtot 0.429542
 5606         os    188    ccc     O5   5606 -0.42966500  16.000000   ; qtot -0.000123
; residue  189 ccc rtp ccc q 0.0
 5607         c3    189    ccc     C1   5607 0.50749700  12.010000   ; qtot 0.507374
 5608         h1    189    ccc     H1   5608 -0.02808400   1.008000   ; qtot 0.479290
 5609         h1    189    ccc     H2   5609 -0.02808400   1.008000   ; qtot 0.451206
 5610         c3    189    ccc     C2   5610 -0.15486000  12.010000   ; qtot 0.296346
 5611         hc    189    ccc     H3   5611 0.10266400   1.008000   ; qtot 0.399010
 5612         hc    189    ccc     H4   5612 0.10266400   1.008000   ; qtot 0.501674
 5613         c3    189    ccc     C3   5613 -0.15693500  12.010000   ; qtot 0.344739
 5614         h1    189    ccc     H5   5614 0.08499200   1.008000   ; qtot 0.429731
 5615         h1    189    ccc     H6   5615 0.08499200   1.008000   ; qtot 0.514723
 5616         n3    189    ccc     N1   5616 -0.29948700  14.010000   ; qtot 0.215236
 5617         c3    189    ccc     C4   5617 -0.01321200  12.010000   ; qtot 0.202024
 5618         h1    189    ccc     H7   5618 0.08172200   1.008000   ; qtot 0.283746
 5619         h1    189    ccc     H8   5619 0.08172200   1.008000   ; qtot 0.365468
 5620         c3    189    ccc     C5   5620 -0.22180000  12.010000   ; qtot 0.143668
 5621         hc    189    ccc     H9   5621 0.09671800   1.008000   ; qtot 0.240386
 5622         hc    189    ccc    H10   5622 0.09671800   1.008000   ; qtot 0.337104
 5623          c    189    ccc     C6   5623 0.526324  12.010000   ; qtot 1.333631
 5624          o    189    ccc     O1   5624 -0.39142825  16.000000   ; qtot 0.637125
 5625         oh    189    ccc     O2   5625 -0.56822625  16.000000   ; qtot -0.203686
 5626         ho    189    ccc    H11   5626 0.4186155   1.008000   ; qtot 0.322389
 5627         c3    189    ccc     C7   5627 -0.01321200  12.010000   ; qtot 0.309177
 5628         h1    189    ccc    H12   5628 0.08172200   1.008000   ; qtot 0.390899
 5629         h1    189    ccc    H13   5629 0.08172200   1.008000   ; qtot 0.472621
 5630         c3    189    ccc     C8   5630 -0.22180000  12.010000   ; qtot 0.250821
 5631         hc    189    ccc    H14   5631 0.09671800   1.008000   ; qtot 0.347539
 5632         hc    189    ccc    H15   5632 0.09671800   1.008000   ; qtot 0.444257
 5633          c    189    ccc     C9   5633 0.526324  12.010000   ; qtot 1.440784
 5634          o    189    ccc     O3   5634 -0.39142825  16.000000   ; qtot 0.744278
 5635         oh    189    ccc     O4   5635 -0.56822625  16.000000   ; qtot -0.096533
 5636         ho    189    ccc    H16   5636 0.4186155   1.008000   ; qtot 0.429542
 5637         os    189    ccc     O5   5637 -0.42966500  16.000000   ; qtot -0.000123
; residue  190 ccc rtp ccc q 0.0
 5638         c3    190    ccc     C1   5638 0.50749700  12.010000   ; qtot 0.507374
 5639         h1    190    ccc     H1   5639 -0.02808400   1.008000   ; qtot 0.479290
 5640         h1    190    ccc     H2   5640 -0.02808400   1.008000   ; qtot 0.451206
 5641         c3    190    ccc     C2   5641 -0.15486000  12.010000   ; qtot 0.296346
 5642         hc    190    ccc     H3   5642 0.10266400   1.008000   ; qtot 0.399010
 5643         hc    190    ccc     H4   5643 0.10266400   1.008000   ; qtot 0.501674
 5644         c3    190    ccc     C3   5644 -0.15693500  12.010000   ; qtot 0.344739
 5645         h1    190    ccc     H5   5645 0.08499200   1.008000   ; qtot 0.429731
 5646         h1    190    ccc     H6   5646 0.08499200   1.008000   ; qtot 0.514723
 5647         n3    190    ccc     N1   5647 -0.29948700  14.010000   ; qtot 0.215236
 5648         c3    190    ccc     C4   5648 -0.01321200  12.010000   ; qtot 0.202024
 5649         h1    190    ccc     H7   5649 0.08172200   1.008000   ; qtot 0.283746
 5650         h1    190    ccc     H8   5650 0.08172200   1.008000   ; qtot 0.365468
 5651         c3    190    ccc     C5   5651 -0.22180000  12.010000   ; qtot 0.143668
 5652         hc    190    ccc     H9   5652 0.09671800   1.008000   ; qtot 0.240386
 5653         hc    190    ccc    H10   5653 0.09671800   1.008000   ; qtot 0.337104
 5654          c    190    ccc     C6   5654 0.526324  12.010000   ; qtot 1.333631
 5655          o    190    ccc     O1   5655 -0.39142825  16.000000   ; qtot 0.637125
 5656         oh    190    ccc     O2   5656 -0.56822625  16.000000   ; qtot -0.203686
 5657         ho    190    ccc    H11   5657 0.4186155   1.008000   ; qtot 0.322389
 5658         c3    190    ccc     C7   5658 -0.01321200  12.010000   ; qtot 0.309177
 5659         h1    190    ccc    H12   5659 0.08172200   1.008000   ; qtot 0.390899
 5660         h1    190    ccc    H13   5660 0.08172200   1.008000   ; qtot 0.472621
 5661         c3    190    ccc     C8   5661 -0.22180000  12.010000   ; qtot 0.250821
 5662         hc    190    ccc    H14   5662 0.09671800   1.008000   ; qtot 0.347539
 5663         hc    190    ccc    H15   5663 0.09671800   1.008000   ; qtot 0.444257
 5664          c    190    ccc     C9   5664 0.526324  12.010000   ; qtot 1.440784
 5665          o    190    ccc     O3   5665 -0.39142825  16.000000   ; qtot 0.744278
 5666         oh    190    ccc     O4   5666 -0.56822625  16.000000   ; qtot -0.096533
 5667         ho    190    ccc    H16   5667 0.4186155   1.008000   ; qtot 0.429542
 5668         os    190    ccc     O5   5668 -0.42966500  16.000000   ; qtot -0.000123
; residue  191 ccc rtp ccc q 0.0
 5669         c3    191    ccc     C1   5669 0.50749700  12.010000   ; qtot 0.507374
 5670         h1    191    ccc     H1   5670 -0.02808400   1.008000   ; qtot 0.479290
 5671         h1    191    ccc     H2   5671 -0.02808400   1.008000   ; qtot 0.451206
 5672         c3    191    ccc     C2   5672 -0.15486000  12.010000   ; qtot 0.296346
 5673         hc    191    ccc     H3   5673 0.10266400   1.008000   ; qtot 0.399010
 5674         hc    191    ccc     H4   5674 0.10266400   1.008000   ; qtot 0.501674
 5675         c3    191    ccc     C3   5675 -0.15693500  12.010000   ; qtot 0.344739
 5676         h1    191    ccc     H5   5676 0.08499200   1.008000   ; qtot 0.429731
 5677         h1    191    ccc     H6   5677 0.08499200   1.008000   ; qtot 0.514723
 5678         n3    191    ccc     N1   5678 -0.29948700  14.010000   ; qtot 0.215236
 5679         c3    191    ccc     C4   5679 -0.01321200  12.010000   ; qtot 0.202024
 5680         h1    191    ccc     H7   5680 0.08172200   1.008000   ; qtot 0.283746
 5681         h1    191    ccc     H8   5681 0.08172200   1.008000   ; qtot 0.365468
 5682         c3    191    ccc     C5   5682 -0.22180000  12.010000   ; qtot 0.143668
 5683         hc    191    ccc     H9   5683 0.09671800   1.008000   ; qtot 0.240386
 5684         hc    191    ccc    H10   5684 0.09671800   1.008000   ; qtot 0.337104
 5685          c    191    ccc     C6   5685 0.526324  12.010000   ; qtot 1.333631
 5686          o    191    ccc     O1   5686 -0.39142825  16.000000   ; qtot 0.637125
 5687         oh    191    ccc     O2   5687 -0.56822625  16.000000   ; qtot -0.203686
 5688         ho    191    ccc    H11   5688 0.4186155   1.008000   ; qtot 0.322389
 5689         c3    191    ccc     C7   5689 -0.01321200  12.010000   ; qtot 0.309177
 5690         h1    191    ccc    H12   5690 0.08172200   1.008000   ; qtot 0.390899
 5691         h1    191    ccc    H13   5691 0.08172200   1.008000   ; qtot 0.472621
 5692         c3    191    ccc     C8   5692 -0.22180000  12.010000   ; qtot 0.250821
 5693         hc    191    ccc    H14   5693 0.09671800   1.008000   ; qtot 0.347539
 5694         hc    191    ccc    H15   5694 0.09671800   1.008000   ; qtot 0.444257
 5695          c    191    ccc     C9   5695 0.526324  12.010000   ; qtot 1.440784
 5696          o    191    ccc     O3   5696 -0.39142825  16.000000   ; qtot 0.744278
 5697         oh    191    ccc     O4   5697 -0.56822625  16.000000   ; qtot -0.096533
 5698         ho    191    ccc    H16   5698 0.4186155   1.008000   ; qtot 0.429542
 5699         os    191    ccc     O5   5699 -0.42966500  16.000000   ; qtot -0.000123
; residue  192 ccc rtp ccc q 0.0
 5700         c3    192    ccc     C1   5700 0.50749700  12.010000   ; qtot 0.507374
 5701         h1    192    ccc     H1   5701 -0.02808400   1.008000   ; qtot 0.479290
 5702         h1    192    ccc     H2   5702 -0.02808400   1.008000   ; qtot 0.451206
 5703         c3    192    ccc     C2   5703 -0.15486000  12.010000   ; qtot 0.296346
 5704         hc    192    ccc     H3   5704 0.10266400   1.008000   ; qtot 0.399010
 5705         hc    192    ccc     H4   5705 0.10266400   1.008000   ; qtot 0.501674
 5706         c3    192    ccc     C3   5706 -0.15693500  12.010000   ; qtot 0.344739
 5707         h1    192    ccc     H5   5707 0.08499200   1.008000   ; qtot 0.429731
 5708         h1    192    ccc     H6   5708 0.08499200   1.008000   ; qtot 0.514723
 5709         n3    192    ccc     N1   5709 -0.29948700  14.010000   ; qtot 0.215236
 5710         c3    192    ccc     C4   5710 -0.01321200  12.010000   ; qtot 0.202024
 5711         h1    192    ccc     H7   5711 0.08172200   1.008000   ; qtot 0.283746
 5712         h1    192    ccc     H8   5712 0.08172200   1.008000   ; qtot 0.365468
 5713         c3    192    ccc     C5   5713 -0.22180000  12.010000   ; qtot 0.143668
 5714         hc    192    ccc     H9   5714 0.09671800   1.008000   ; qtot 0.240386
 5715         hc    192    ccc    H10   5715 0.09671800   1.008000   ; qtot 0.337104
 5716          c    192    ccc     C6   5716 0.526324  12.010000   ; qtot 1.333631
 5717          o    192    ccc     O1   5717 -0.39142825  16.000000   ; qtot 0.637125
 5718         oh    192    ccc     O2   5718 -0.56822625  16.000000   ; qtot -0.203686
 5719         ho    192    ccc    H11   5719 0.4186155   1.008000   ; qtot 0.322389
 5720         c3    192    ccc     C7   5720 -0.01321200  12.010000   ; qtot 0.309177
 5721         h1    192    ccc    H12   5721 0.08172200   1.008000   ; qtot 0.390899
 5722         h1    192    ccc    H13   5722 0.08172200   1.008000   ; qtot 0.472621
 5723         c3    192    ccc     C8   5723 -0.22180000  12.010000   ; qtot 0.250821
 5724         hc    192    ccc    H14   5724 0.09671800   1.008000   ; qtot 0.347539
 5725         hc    192    ccc    H15   5725 0.09671800   1.008000   ; qtot 0.444257
 5726          c    192    ccc     C9   5726 0.526324  12.010000   ; qtot 1.440784
 5727          o    192    ccc     O3   5727 -0.39142825  16.000000   ; qtot 0.744278
 5728         oh    192    ccc     O4   5728 -0.56822625  16.000000   ; qtot -0.096533
 5729         ho    192    ccc    H16   5729 0.4186155   1.008000   ; qtot 0.429542
 5730         os    192    ccc     O5   5730 -0.42966500  16.000000   ; qtot -0.000123
; residue  193 ccc rtp ccc q 0.0
 5731         c3    193    ccc     C1   5731 0.50749700  12.010000   ; qtot 0.507374
 5732         h1    193    ccc     H1   5732 -0.02808400   1.008000   ; qtot 0.479290
 5733         h1    193    ccc     H2   5733 -0.02808400   1.008000   ; qtot 0.451206
 5734         c3    193    ccc     C2   5734 -0.15486000  12.010000   ; qtot 0.296346
 5735         hc    193    ccc     H3   5735 0.10266400   1.008000   ; qtot 0.399010
 5736         hc    193    ccc     H4   5736 0.10266400   1.008000   ; qtot 0.501674
 5737         c3    193    ccc     C3   5737 -0.15693500  12.010000   ; qtot 0.344739
 5738         h1    193    ccc     H5   5738 0.08499200   1.008000   ; qtot 0.429731
 5739         h1    193    ccc     H6   5739 0.08499200   1.008000   ; qtot 0.514723
 5740         n3    193    ccc     N1   5740 -0.29948700  14.010000   ; qtot 0.215236
 5741         c3    193    ccc     C4   5741 -0.01321200  12.010000   ; qtot 0.202024
 5742         h1    193    ccc     H7   5742 0.08172200   1.008000   ; qtot 0.283746
 5743         h1    193    ccc     H8   5743 0.08172200   1.008000   ; qtot 0.365468
 5744         c3    193    ccc     C5   5744 -0.22180000  12.010000   ; qtot 0.143668
 5745         hc    193    ccc     H9   5745 0.09671800   1.008000   ; qtot 0.240386
 5746         hc    193    ccc    H10   5746 0.09671800   1.008000   ; qtot 0.337104
 5747          c    193    ccc     C6   5747 0.526324  12.010000   ; qtot 1.333631
 5748          o    193    ccc     O1   5748 -0.39142825  16.000000   ; qtot 0.637125
 5749         oh    193    ccc     O2   5749 -0.56822625  16.000000   ; qtot -0.203686
 5750         ho    193    ccc    H11   5750 0.4186155   1.008000   ; qtot 0.322389
 5751         c3    193    ccc     C7   5751 -0.01321200  12.010000   ; qtot 0.309177
 5752         h1    193    ccc    H12   5752 0.08172200   1.008000   ; qtot 0.390899
 5753         h1    193    ccc    H13   5753 0.08172200   1.008000   ; qtot 0.472621
 5754         c3    193    ccc     C8   5754 -0.22180000  12.010000   ; qtot 0.250821
 5755         hc    193    ccc    H14   5755 0.09671800   1.008000   ; qtot 0.347539
 5756         hc    193    ccc    H15   5756 0.09671800   1.008000   ; qtot 0.444257
 5757          c    193    ccc     C9   5757 0.526324  12.010000   ; qtot 1.440784
 5758          o    193    ccc     O3   5758 -0.39142825  16.000000   ; qtot 0.744278
 5759         oh    193    ccc     O4   5759 -0.56822625  16.000000   ; qtot -0.096533
 5760         ho    193    ccc    H16   5760 0.4186155   1.008000   ; qtot 0.429542
 5761         os    193    ccc     O5   5761 -0.42966500  16.000000   ; qtot -0.000123
; residue  194 ccc rtp ccc q 0.0
 5762         c3    194    ccc     C1   5762 0.50749700  12.010000   ; qtot 0.507374
 5763         h1    194    ccc     H1   5763 -0.02808400   1.008000   ; qtot 0.479290
 5764         h1    194    ccc     H2   5764 -0.02808400   1.008000   ; qtot 0.451206
 5765         c3    194    ccc     C2   5765 -0.15486000  12.010000   ; qtot 0.296346
 5766         hc    194    ccc     H3   5766 0.10266400   1.008000   ; qtot 0.399010
 5767         hc    194    ccc     H4   5767 0.10266400   1.008000   ; qtot 0.501674
 5768         c3    194    ccc     C3   5768 -0.15693500  12.010000   ; qtot 0.344739
 5769         h1    194    ccc     H5   5769 0.08499200   1.008000   ; qtot 0.429731
 5770         h1    194    ccc     H6   5770 0.08499200   1.008000   ; qtot 0.514723
 5771         n3    194    ccc     N1   5771 -0.29948700  14.010000   ; qtot 0.215236
 5772         c3    194    ccc     C4   5772 -0.01321200  12.010000   ; qtot 0.202024
 5773         h1    194    ccc     H7   5773 0.08172200   1.008000   ; qtot 0.283746
 5774         h1    194    ccc     H8   5774 0.08172200   1.008000   ; qtot 0.365468
 5775         c3    194    ccc     C5   5775 -0.22180000  12.010000   ; qtot 0.143668
 5776         hc    194    ccc     H9   5776 0.09671800   1.008000   ; qtot 0.240386
 5777         hc    194    ccc    H10   5777 0.09671800   1.008000   ; qtot 0.337104
 5778          c    194    ccc     C6   5778 0.526324  12.010000   ; qtot 1.333631
 5779          o    194    ccc     O1   5779 -0.39142825  16.000000   ; qtot 0.637125
 5780         oh    194    ccc     O2   5780 -0.56822625  16.000000   ; qtot -0.203686
 5781         ho    194    ccc    H11   5781 0.4186155   1.008000   ; qtot 0.322389
 5782         c3    194    ccc     C7   5782 -0.01321200  12.010000   ; qtot 0.309177
 5783         h1    194    ccc    H12   5783 0.08172200   1.008000   ; qtot 0.390899
 5784         h1    194    ccc    H13   5784 0.08172200   1.008000   ; qtot 0.472621
 5785         c3    194    ccc     C8   5785 -0.22180000  12.010000   ; qtot 0.250821
 5786         hc    194    ccc    H14   5786 0.09671800   1.008000   ; qtot 0.347539
 5787         hc    194    ccc    H15   5787 0.09671800   1.008000   ; qtot 0.444257
 5788          c    194    ccc     C9   5788 0.526324  12.010000   ; qtot 1.440784
 5789          o    194    ccc     O3   5789 -0.39142825  16.000000   ; qtot 0.744278
 5790         oh    194    ccc     O4   5790 -0.56822625  16.000000   ; qtot -0.096533
 5791         ho    194    ccc    H16   5791 0.4186155   1.008000   ; qtot 0.429542
 5792         os    194    ccc     O5   5792 -0.42966500  16.000000   ; qtot -0.000123
; residue  195 ccc rtp ccc q 0.0
 5793         c3    195    ccc     C1   5793 0.50749700  12.010000   ; qtot 0.507374
 5794         h1    195    ccc     H1   5794 -0.02808400   1.008000   ; qtot 0.479290
 5795         h1    195    ccc     H2   5795 -0.02808400   1.008000   ; qtot 0.451206
 5796         c3    195    ccc     C2   5796 -0.15486000  12.010000   ; qtot 0.296346
 5797         hc    195    ccc     H3   5797 0.10266400   1.008000   ; qtot 0.399010
 5798         hc    195    ccc     H4   5798 0.10266400   1.008000   ; qtot 0.501674
 5799         c3    195    ccc     C3   5799 -0.15693500  12.010000   ; qtot 0.344739
 5800         h1    195    ccc     H5   5800 0.08499200   1.008000   ; qtot 0.429731
 5801         h1    195    ccc     H6   5801 0.08499200   1.008000   ; qtot 0.514723
 5802         n3    195    ccc     N1   5802 -0.29948700  14.010000   ; qtot 0.215236
 5803         c3    195    ccc     C4   5803 -0.01321200  12.010000   ; qtot 0.202024
 5804         h1    195    ccc     H7   5804 0.08172200   1.008000   ; qtot 0.283746
 5805         h1    195    ccc     H8   5805 0.08172200   1.008000   ; qtot 0.365468
 5806         c3    195    ccc     C5   5806 -0.22180000  12.010000   ; qtot 0.143668
 5807         hc    195    ccc     H9   5807 0.09671800   1.008000   ; qtot 0.240386
 5808         hc    195    ccc    H10   5808 0.09671800   1.008000   ; qtot 0.337104
 5809          c    195    ccc     C6   5809 0.526324  12.010000   ; qtot 1.333631
 5810          o    195    ccc     O1   5810 -0.39142825  16.000000   ; qtot 0.637125
 5811         oh    195    ccc     O2   5811 -0.56822625  16.000000   ; qtot -0.203686
 5812         ho    195    ccc    H11   5812 0.4186155   1.008000   ; qtot 0.322389
 5813         c3    195    ccc     C7   5813 -0.01321200  12.010000   ; qtot 0.309177
 5814         h1    195    ccc    H12   5814 0.08172200   1.008000   ; qtot 0.390899
 5815         h1    195    ccc    H13   5815 0.08172200   1.008000   ; qtot 0.472621
 5816         c3    195    ccc     C8   5816 -0.22180000  12.010000   ; qtot 0.250821
 5817         hc    195    ccc    H14   5817 0.09671800   1.008000   ; qtot 0.347539
 5818         hc    195    ccc    H15   5818 0.09671800   1.008000   ; qtot 0.444257
 5819          c    195    ccc     C9   5819 0.526324  12.010000   ; qtot 1.440784
 5820          o    195    ccc     O3   5820 -0.39142825  16.000000   ; qtot 0.744278
 5821         oh    195    ccc     O4   5821 -0.56822625  16.000000   ; qtot -0.096533
 5822         ho    195    ccc    H16   5822 0.4186155   1.008000   ; qtot 0.429542
 5823         os    195    ccc     O5   5823 -0.42966500  16.000000   ; qtot -0.000123
; residue  196 ccc rtp ccc q 0.0
 5824         c3    196    ccc     C1   5824 0.50749700  12.010000   ; qtot 0.507374
 5825         h1    196    ccc     H1   5825 -0.02808400   1.008000   ; qtot 0.479290
 5826         h1    196    ccc     H2   5826 -0.02808400   1.008000   ; qtot 0.451206
 5827         c3    196    ccc     C2   5827 -0.15486000  12.010000   ; qtot 0.296346
 5828         hc    196    ccc     H3   5828 0.10266400   1.008000   ; qtot 0.399010
 5829         hc    196    ccc     H4   5829 0.10266400   1.008000   ; qtot 0.501674
 5830         c3    196    ccc     C3   5830 -0.15693500  12.010000   ; qtot 0.344739
 5831         h1    196    ccc     H5   5831 0.08499200   1.008000   ; qtot 0.429731
 5832         h1    196    ccc     H6   5832 0.08499200   1.008000   ; qtot 0.514723
 5833         n3    196    ccc     N1   5833 -0.29948700  14.010000   ; qtot 0.215236
 5834         c3    196    ccc     C4   5834 -0.01321200  12.010000   ; qtot 0.202024
 5835         h1    196    ccc     H7   5835 0.08172200   1.008000   ; qtot 0.283746
 5836         h1    196    ccc     H8   5836 0.08172200   1.008000   ; qtot 0.365468
 5837         c3    196    ccc     C5   5837 -0.22180000  12.010000   ; qtot 0.143668
 5838         hc    196    ccc     H9   5838 0.09671800   1.008000   ; qtot 0.240386
 5839         hc    196    ccc    H10   5839 0.09671800   1.008000   ; qtot 0.337104
 5840          c    196    ccc     C6   5840 0.526324  12.010000   ; qtot 1.333631
 5841          o    196    ccc     O1   5841 -0.39142825  16.000000   ; qtot 0.637125
 5842         oh    196    ccc     O2   5842 -0.56822625  16.000000   ; qtot -0.203686
 5843         ho    196    ccc    H11   5843 0.4186155   1.008000   ; qtot 0.322389
 5844         c3    196    ccc     C7   5844 -0.01321200  12.010000   ; qtot 0.309177
 5845         h1    196    ccc    H12   5845 0.08172200   1.008000   ; qtot 0.390899
 5846         h1    196    ccc    H13   5846 0.08172200   1.008000   ; qtot 0.472621
 5847         c3    196    ccc     C8   5847 -0.22180000  12.010000   ; qtot 0.250821
 5848         hc    196    ccc    H14   5848 0.09671800   1.008000   ; qtot 0.347539
 5849         hc    196    ccc    H15   5849 0.09671800   1.008000   ; qtot 0.444257
 5850          c    196    ccc     C9   5850 0.526324  12.010000   ; qtot 1.440784
 5851          o    196    ccc     O3   5851 -0.39142825  16.000000   ; qtot 0.744278
 5852         oh    196    ccc     O4   5852 -0.56822625  16.000000   ; qtot -0.096533
 5853         ho    196    ccc    H16   5853 0.4186155   1.008000   ; qtot 0.429542
 5854         os    196    ccc     O5   5854 -0.42966500  16.000000   ; qtot -0.000123
; residue  197 ccc rtp ccc q 0.0
 5855         c3    197    ccc     C1   5855 0.50749700  12.010000   ; qtot 0.507374
 5856         h1    197    ccc     H1   5856 -0.02808400   1.008000   ; qtot 0.479290
 5857         h1    197    ccc     H2   5857 -0.02808400   1.008000   ; qtot 0.451206
 5858         c3    197    ccc     C2   5858 -0.15486000  12.010000   ; qtot 0.296346
 5859         hc    197    ccc     H3   5859 0.10266400   1.008000   ; qtot 0.399010
 5860         hc    197    ccc     H4   5860 0.10266400   1.008000   ; qtot 0.501674
 5861         c3    197    ccc     C3   5861 -0.15693500  12.010000   ; qtot 0.344739
 5862         h1    197    ccc     H5   5862 0.08499200   1.008000   ; qtot 0.429731
 5863         h1    197    ccc     H6   5863 0.08499200   1.008000   ; qtot 0.514723
 5864         n3    197    ccc     N1   5864 -0.29948700  14.010000   ; qtot 0.215236
 5865         c3    197    ccc     C4   5865 -0.01321200  12.010000   ; qtot 0.202024
 5866         h1    197    ccc     H7   5866 0.08172200   1.008000   ; qtot 0.283746
 5867         h1    197    ccc     H8   5867 0.08172200   1.008000   ; qtot 0.365468
 5868         c3    197    ccc     C5   5868 -0.22180000  12.010000   ; qtot 0.143668
 5869         hc    197    ccc     H9   5869 0.09671800   1.008000   ; qtot 0.240386
 5870         hc    197    ccc    H10   5870 0.09671800   1.008000   ; qtot 0.337104
 5871          c    197    ccc     C6   5871 0.526324  12.010000   ; qtot 1.333631
 5872          o    197    ccc     O1   5872 -0.39142825  16.000000   ; qtot 0.637125
 5873         oh    197    ccc     O2   5873 -0.56822625  16.000000   ; qtot -0.203686
 5874         ho    197    ccc    H11   5874 0.4186155   1.008000   ; qtot 0.322389
 5875         c3    197    ccc     C7   5875 -0.01321200  12.010000   ; qtot 0.309177
 5876         h1    197    ccc    H12   5876 0.08172200   1.008000   ; qtot 0.390899
 5877         h1    197    ccc    H13   5877 0.08172200   1.008000   ; qtot 0.472621
 5878         c3    197    ccc     C8   5878 -0.22180000  12.010000   ; qtot 0.250821
 5879         hc    197    ccc    H14   5879 0.09671800   1.008000   ; qtot 0.347539
 5880         hc    197    ccc    H15   5880 0.09671800   1.008000   ; qtot 0.444257
 5881          c    197    ccc     C9   5881 0.526324  12.010000   ; qtot 1.440784
 5882          o    197    ccc     O3   5882 -0.39142825  16.000000   ; qtot 0.744278
 5883         oh    197    ccc     O4   5883 -0.56822625  16.000000   ; qtot -0.096533
 5884         ho    197    ccc    H16   5884 0.4186155   1.008000   ; qtot 0.429542
 5885         os    197    ccc     O5   5885 -0.42966500  16.000000   ; qtot -0.000123
; residue  198 ccc rtp ccc q 0.0
 5886         c3    198    ccc     C1   5886 0.50749700  12.010000   ; qtot 0.507374
 5887         h1    198    ccc     H1   5887 -0.02808400   1.008000   ; qtot 0.479290
 5888         h1    198    ccc     H2   5888 -0.02808400   1.008000   ; qtot 0.451206
 5889         c3    198    ccc     C2   5889 -0.15486000  12.010000   ; qtot 0.296346
 5890         hc    198    ccc     H3   5890 0.10266400   1.008000   ; qtot 0.399010
 5891         hc    198    ccc     H4   5891 0.10266400   1.008000   ; qtot 0.501674
 5892         c3    198    ccc     C3   5892 -0.15693500  12.010000   ; qtot 0.344739
 5893         h1    198    ccc     H5   5893 0.08499200   1.008000   ; qtot 0.429731
 5894         h1    198    ccc     H6   5894 0.08499200   1.008000   ; qtot 0.514723
 5895         n3    198    ccc     N1   5895 -0.29948700  14.010000   ; qtot 0.215236
 5896         c3    198    ccc     C4   5896 -0.01321200  12.010000   ; qtot 0.202024
 5897         h1    198    ccc     H7   5897 0.08172200   1.008000   ; qtot 0.283746
 5898         h1    198    ccc     H8   5898 0.08172200   1.008000   ; qtot 0.365468
 5899         c3    198    ccc     C5   5899 -0.22180000  12.010000   ; qtot 0.143668
 5900         hc    198    ccc     H9   5900 0.09671800   1.008000   ; qtot 0.240386
 5901         hc    198    ccc    H10   5901 0.09671800   1.008000   ; qtot 0.337104
 5902          c    198    ccc     C6   5902 0.526324  12.010000   ; qtot 1.333631
 5903          o    198    ccc     O1   5903 -0.39142825  16.000000   ; qtot 0.637125
 5904         oh    198    ccc     O2   5904 -0.56822625  16.000000   ; qtot -0.203686
 5905         ho    198    ccc    H11   5905 0.4186155   1.008000   ; qtot 0.322389
 5906         c3    198    ccc     C7   5906 -0.01321200  12.010000   ; qtot 0.309177
 5907         h1    198    ccc    H12   5907 0.08172200   1.008000   ; qtot 0.390899
 5908         h1    198    ccc    H13   5908 0.08172200   1.008000   ; qtot 0.472621
 5909         c3    198    ccc     C8   5909 -0.22180000  12.010000   ; qtot 0.250821
 5910         hc    198    ccc    H14   5910 0.09671800   1.008000   ; qtot 0.347539
 5911         hc    198    ccc    H15   5911 0.09671800   1.008000   ; qtot 0.444257
 5912          c    198    ccc     C9   5912 0.526324  12.010000   ; qtot 1.440784
 5913          o    198    ccc     O3   5913 -0.39142825  16.000000   ; qtot 0.744278
 5914         oh    198    ccc     O4   5914 -0.56822625  16.000000   ; qtot -0.096533
 5915         ho    198    ccc    H16   5915 0.4186155   1.008000   ; qtot 0.429542
 5916         os    198    ccc     O5   5916 -0.42966500  16.000000   ; qtot -0.000123
; residue  199 ccc rtp ccc q 0.0
 5917         c3    199    ccc     C1   5917 0.50749700  12.010000   ; qtot 0.507374
 5918         h1    199    ccc     H1   5918 -0.02808400   1.008000   ; qtot 0.479290
 5919         h1    199    ccc     H2   5919 -0.02808400   1.008000   ; qtot 0.451206
 5920         c3    199    ccc     C2   5920 -0.15486000  12.010000   ; qtot 0.296346
 5921         hc    199    ccc     H3   5921 0.10266400   1.008000   ; qtot 0.399010
 5922         hc    199    ccc     H4   5922 0.10266400   1.008000   ; qtot 0.501674
 5923         c3    199    ccc     C3   5923 -0.15693500  12.010000   ; qtot 0.344739
 5924         h1    199    ccc     H5   5924 0.08499200   1.008000   ; qtot 0.429731
 5925         h1    199    ccc     H6   5925 0.08499200   1.008000   ; qtot 0.514723
 5926         n3    199    ccc     N1   5926 -0.29948700  14.010000   ; qtot 0.215236
 5927         c3    199    ccc     C4   5927 -0.01321200  12.010000   ; qtot 0.202024
 5928         h1    199    ccc     H7   5928 0.08172200   1.008000   ; qtot 0.283746
 5929         h1    199    ccc     H8   5929 0.08172200   1.008000   ; qtot 0.365468
 5930         c3    199    ccc     C5   5930 -0.22180000  12.010000   ; qtot 0.143668
 5931         hc    199    ccc     H9   5931 0.09671800   1.008000   ; qtot 0.240386
 5932         hc    199    ccc    H10   5932 0.09671800   1.008000   ; qtot 0.337104
 5933          c    199    ccc     C6   5933 0.526324  12.010000   ; qtot 1.333631
 5934          o    199    ccc     O1   5934 -0.39142825  16.000000   ; qtot 0.637125
 5935         oh    199    ccc     O2   5935 -0.56822625  16.000000   ; qtot -0.203686
 5936         ho    199    ccc    H11   5936 0.4186155   1.008000   ; qtot 0.322389
 5937         c3    199    ccc     C7   5937 -0.01321200  12.010000   ; qtot 0.309177
 5938         h1    199    ccc    H12   5938 0.08172200   1.008000   ; qtot 0.390899
 5939         h1    199    ccc    H13   5939 0.08172200   1.008000   ; qtot 0.472621
 5940         c3    199    ccc     C8   5940 -0.22180000  12.010000   ; qtot 0.250821
 5941         hc    199    ccc    H14   5941 0.09671800   1.008000   ; qtot 0.347539
 5942         hc    199    ccc    H15   5942 0.09671800   1.008000   ; qtot 0.444257
 5943          c    199    ccc     C9   5943 0.526324  12.010000   ; qtot 1.440784
 5944          o    199    ccc     O3   5944 -0.39142825  16.000000   ; qtot 0.744278
 5945         oh    199    ccc     O4   5945 -0.56822625  16.000000   ; qtot -0.096533
 5946         ho    199    ccc    H16   5946 0.4186155   1.008000   ; qtot 0.429542
 5947         os    199    ccc     O5   5947 -0.42966500  16.000000   ; qtot -0.000123
; residue  200 ccc rtp ccc q 0.0
 5948         c3    200    ccc     C1   5948 0.50749700  12.010000   ; qtot 0.507374
 5949         h1    200    ccc     H1   5949 -0.02808400   1.008000   ; qtot 0.479290
 5950         h1    200    ccc     H2   5950 -0.02808400   1.008000   ; qtot 0.451206
 5951         c3    200    ccc     C2   5951 -0.15486000  12.010000   ; qtot 0.296346
 5952         hc    200    ccc     H3   5952 0.10266400   1.008000   ; qtot 0.399010
 5953         hc    200    ccc     H4   5953 0.10266400   1.008000   ; qtot 0.501674
 5954         c3    200    ccc     C3   5954 -0.15693500  12.010000   ; qtot 0.344739
 5955         h1    200    ccc     H5   5955 0.08499200   1.008000   ; qtot 0.429731
 5956         h1    200    ccc     H6   5956 0.08499200   1.008000   ; qtot 0.514723
 5957         n3    200    ccc     N1   5957 -0.29948700  14.010000   ; qtot 0.215236
 5958         c3    200    ccc     C4   5958 -0.01321200  12.010000   ; qtot 0.202024
 5959         h1    200    ccc     H7   5959 0.08172200   1.008000   ; qtot 0.283746
 5960         h1    200    ccc     H8   5960 0.08172200   1.008000   ; qtot 0.365468
 5961         c3    200    ccc     C5   5961 -0.22180000  12.010000   ; qtot 0.143668
 5962         hc    200    ccc     H9   5962 0.09671800   1.008000   ; qtot 0.240386
 5963         hc    200    ccc    H10   5963 0.09671800   1.008000   ; qtot 0.337104
 5964          c    200    ccc     C6   5964 0.526324  12.010000   ; qtot 1.333631
 5965          o    200    ccc     O1   5965 -0.39142825  16.000000   ; qtot 0.637125
 5966         oh    200    ccc     O2   5966 -0.56822625  16.000000   ; qtot -0.203686
 5967         ho    200    ccc    H11   5967 0.4186155   1.008000   ; qtot 0.322389
 5968         c3    200    ccc     C7   5968 -0.01321200  12.010000   ; qtot 0.309177
 5969         h1    200    ccc    H12   5969 0.08172200   1.008000   ; qtot 0.390899
 5970         h1    200    ccc    H13   5970 0.08172200   1.008000   ; qtot 0.472621
 5971         c3    200    ccc     C8   5971 -0.22180000  12.010000   ; qtot 0.250821
 5972         hc    200    ccc    H14   5972 0.09671800   1.008000   ; qtot 0.347539
 5973         hc    200    ccc    H15   5973 0.09671800   1.008000   ; qtot 0.444257
 5974          c    200    ccc     C9   5974 0.526324  12.010000   ; qtot 1.440784
 5975          o    200    ccc     O3   5975 -0.39142825  16.000000   ; qtot 0.744278
 5976         oh    200    ccc     O4   5976 -0.56822625  16.000000   ; qtot -0.096533
 5977         ho    200    ccc    H16   5977 0.4186155   1.008000   ; qtot 0.429542
 5978         os    200    ccc     O5   5978 -0.42966500  16.000000   ; qtot -0.000123
; residue  201 ccc rtp ccc q 0.0
 5979         c3    201    ccc     C1   5979 0.50749700  12.010000   ; qtot 0.507374
 5980         h1    201    ccc     H1   5980 -0.02808400   1.008000   ; qtot 0.479290
 5981         h1    201    ccc     H2   5981 -0.02808400   1.008000   ; qtot 0.451206
 5982         c3    201    ccc     C2   5982 -0.15486000  12.010000   ; qtot 0.296346
 5983         hc    201    ccc     H3   5983 0.10266400   1.008000   ; qtot 0.399010
 5984         hc    201    ccc     H4   5984 0.10266400   1.008000   ; qtot 0.501674
 5985         c3    201    ccc     C3   5985 -0.15693500  12.010000   ; qtot 0.344739
 5986         h1    201    ccc     H5   5986 0.08499200   1.008000   ; qtot 0.429731
 5987         h1    201    ccc     H6   5987 0.08499200   1.008000   ; qtot 0.514723
 5988         n3    201    ccc     N1   5988 -0.29948700  14.010000   ; qtot 0.215236
 5989         c3    201    ccc     C4   5989 -0.01321200  12.010000   ; qtot 0.202024
 5990         h1    201    ccc     H7   5990 0.08172200   1.008000   ; qtot 0.283746
 5991         h1    201    ccc     H8   5991 0.08172200   1.008000   ; qtot 0.365468
 5992         c3    201    ccc     C5   5992 -0.22180000  12.010000   ; qtot 0.143668
 5993         hc    201    ccc     H9   5993 0.09671800   1.008000   ; qtot 0.240386
 5994         hc    201    ccc    H10   5994 0.09671800   1.008000   ; qtot 0.337104
 5995          c    201    ccc     C6   5995 0.526324  12.010000   ; qtot 1.333631
 5996          o    201    ccc     O1   5996 -0.39142825  16.000000   ; qtot 0.637125
 5997         oh    201    ccc     O2   5997 -0.56822625  16.000000   ; qtot -0.203686
 5998         ho    201    ccc    H11   5998 0.4186155   1.008000   ; qtot 0.322389
 5999         c3    201    ccc     C7   5999 -0.01321200  12.010000   ; qtot 0.309177
 6000         h1    201    ccc    H12   6000 0.08172200   1.008000   ; qtot 0.390899
 6001         h1    201    ccc    H13   6001 0.08172200   1.008000   ; qtot 0.472621
 6002         c3    201    ccc     C8   6002 -0.22180000  12.010000   ; qtot 0.250821
 6003         hc    201    ccc    H14   6003 0.09671800   1.008000   ; qtot 0.347539
 6004         hc    201    ccc    H15   6004 0.09671800   1.008000   ; qtot 0.444257
 6005          c    201    ccc     C9   6005 0.526324  12.010000   ; qtot 1.440784
 6006          o    201    ccc     O3   6006 -0.39142825  16.000000   ; qtot 0.744278
 6007         oh    201    ccc     O4   6007 -0.56822625  16.000000   ; qtot -0.096533
 6008         ho    201    ccc    H16   6008 0.4186155   1.008000   ; qtot 0.429542
 6009         os    201    ccc     O5   6009 -0.42966500  16.000000   ; qtot -0.000123
; residue  202 ccc rtp ccc q 0.0
 6010         c3    202    ccc     C1   6010 0.50749700  12.010000   ; qtot 0.507374
 6011         h1    202    ccc     H1   6011 -0.02808400   1.008000   ; qtot 0.479290
 6012         h1    202    ccc     H2   6012 -0.02808400   1.008000   ; qtot 0.451206
 6013         c3    202    ccc     C2   6013 -0.15486000  12.010000   ; qtot 0.296346
 6014         hc    202    ccc     H3   6014 0.10266400   1.008000   ; qtot 0.399010
 6015         hc    202    ccc     H4   6015 0.10266400   1.008000   ; qtot 0.501674
 6016         c3    202    ccc     C3   6016 -0.15693500  12.010000   ; qtot 0.344739
 6017         h1    202    ccc     H5   6017 0.08499200   1.008000   ; qtot 0.429731
 6018         h1    202    ccc     H6   6018 0.08499200   1.008000   ; qtot 0.514723
 6019         n3    202    ccc     N1   6019 -0.29948700  14.010000   ; qtot 0.215236
 6020         c3    202    ccc     C4   6020 -0.01321200  12.010000   ; qtot 0.202024
 6021         h1    202    ccc     H7   6021 0.08172200   1.008000   ; qtot 0.283746
 6022         h1    202    ccc     H8   6022 0.08172200   1.008000   ; qtot 0.365468
 6023         c3    202    ccc     C5   6023 -0.22180000  12.010000   ; qtot 0.143668
 6024         hc    202    ccc     H9   6024 0.09671800   1.008000   ; qtot 0.240386
 6025         hc    202    ccc    H10   6025 0.09671800   1.008000   ; qtot 0.337104
 6026          c    202    ccc     C6   6026 0.526324  12.010000   ; qtot 1.333631
 6027          o    202    ccc     O1   6027 -0.39142825  16.000000   ; qtot 0.637125
 6028         oh    202    ccc     O2   6028 -0.56822625  16.000000   ; qtot -0.203686
 6029         ho    202    ccc    H11   6029 0.4186155   1.008000   ; qtot 0.322389
 6030         c3    202    ccc     C7   6030 -0.01321200  12.010000   ; qtot 0.309177
 6031         h1    202    ccc    H12   6031 0.08172200   1.008000   ; qtot 0.390899
 6032         h1    202    ccc    H13   6032 0.08172200   1.008000   ; qtot 0.472621
 6033         c3    202    ccc     C8   6033 -0.22180000  12.010000   ; qtot 0.250821
 6034         hc    202    ccc    H14   6034 0.09671800   1.008000   ; qtot 0.347539
 6035         hc    202    ccc    H15   6035 0.09671800   1.008000   ; qtot 0.444257
 6036          c    202    ccc     C9   6036 0.526324  12.010000   ; qtot 1.440784
 6037          o    202    ccc     O3   6037 -0.39142825  16.000000   ; qtot 0.744278
 6038         oh    202    ccc     O4   6038 -0.56822625  16.000000   ; qtot -0.096533
 6039         ho    202    ccc    H16   6039 0.4186155   1.008000   ; qtot 0.429542
 6040         os    202    ccc     O5   6040 -0.42966500  16.000000   ; qtot -0.000123
; residue  203 ccc rtp ccc q 0.0
 6041         c3    203    ccc     C1   6041 0.50749700  12.010000   ; qtot 0.507374
 6042         h1    203    ccc     H1   6042 -0.02808400   1.008000   ; qtot 0.479290
 6043         h1    203    ccc     H2   6043 -0.02808400   1.008000   ; qtot 0.451206
 6044         c3    203    ccc     C2   6044 -0.15486000  12.010000   ; qtot 0.296346
 6045         hc    203    ccc     H3   6045 0.10266400   1.008000   ; qtot 0.399010
 6046         hc    203    ccc     H4   6046 0.10266400   1.008000   ; qtot 0.501674
 6047         c3    203    ccc     C3   6047 -0.15693500  12.010000   ; qtot 0.344739
 6048         h1    203    ccc     H5   6048 0.08499200   1.008000   ; qtot 0.429731
 6049         h1    203    ccc     H6   6049 0.08499200   1.008000   ; qtot 0.514723
 6050         n3    203    ccc     N1   6050 -0.29948700  14.010000   ; qtot 0.215236
 6051         c3    203    ccc     C4   6051 -0.01321200  12.010000   ; qtot 0.202024
 6052         h1    203    ccc     H7   6052 0.08172200   1.008000   ; qtot 0.283746
 6053         h1    203    ccc     H8   6053 0.08172200   1.008000   ; qtot 0.365468
 6054         c3    203    ccc     C5   6054 -0.22180000  12.010000   ; qtot 0.143668
 6055         hc    203    ccc     H9   6055 0.09671800   1.008000   ; qtot 0.240386
 6056         hc    203    ccc    H10   6056 0.09671800   1.008000   ; qtot 0.337104
 6057          c    203    ccc     C6   6057 0.526324  12.010000   ; qtot 1.333631
 6058          o    203    ccc     O1   6058 -0.39142825  16.000000   ; qtot 0.637125
 6059         oh    203    ccc     O2   6059 -0.56822625  16.000000   ; qtot -0.203686
 6060         ho    203    ccc    H11   6060 0.4186155   1.008000   ; qtot 0.322389
 6061         c3    203    ccc     C7   6061 -0.01321200  12.010000   ; qtot 0.309177
 6062         h1    203    ccc    H12   6062 0.08172200   1.008000   ; qtot 0.390899
 6063         h1    203    ccc    H13   6063 0.08172200   1.008000   ; qtot 0.472621
 6064         c3    203    ccc     C8   6064 -0.22180000  12.010000   ; qtot 0.250821
 6065         hc    203    ccc    H14   6065 0.09671800   1.008000   ; qtot 0.347539
 6066         hc    203    ccc    H15   6066 0.09671800   1.008000   ; qtot 0.444257
 6067          c    203    ccc     C9   6067 0.526324  12.010000   ; qtot 1.440784
 6068          o    203    ccc     O3   6068 -0.39142825  16.000000   ; qtot 0.744278
 6069         oh    203    ccc     O4   6069 -0.56822625  16.000000   ; qtot -0.096533
 6070         ho    203    ccc    H16   6070 0.4186155   1.008000   ; qtot 0.429542
 6071         os    203    ccc     O5   6071 -0.42966500  16.000000   ; qtot -0.000123
; residue  204 ccc rtp ccc q 0.0
 6072         c3    204    ccc     C1   6072 0.50749700  12.010000   ; qtot 0.507374
 6073         h1    204    ccc     H1   6073 -0.02808400   1.008000   ; qtot 0.479290
 6074         h1    204    ccc     H2   6074 -0.02808400   1.008000   ; qtot 0.451206
 6075         c3    204    ccc     C2   6075 -0.15486000  12.010000   ; qtot 0.296346
 6076         hc    204    ccc     H3   6076 0.10266400   1.008000   ; qtot 0.399010
 6077         hc    204    ccc     H4   6077 0.10266400   1.008000   ; qtot 0.501674
 6078         c3    204    ccc     C3   6078 -0.15693500  12.010000   ; qtot 0.344739
 6079         h1    204    ccc     H5   6079 0.08499200   1.008000   ; qtot 0.429731
 6080         h1    204    ccc     H6   6080 0.08499200   1.008000   ; qtot 0.514723
 6081         n3    204    ccc     N1   6081 -0.29948700  14.010000   ; qtot 0.215236
 6082         c3    204    ccc     C4   6082 -0.01321200  12.010000   ; qtot 0.202024
 6083         h1    204    ccc     H7   6083 0.08172200   1.008000   ; qtot 0.283746
 6084         h1    204    ccc     H8   6084 0.08172200   1.008000   ; qtot 0.365468
 6085         c3    204    ccc     C5   6085 -0.22180000  12.010000   ; qtot 0.143668
 6086         hc    204    ccc     H9   6086 0.09671800   1.008000   ; qtot 0.240386
 6087         hc    204    ccc    H10   6087 0.09671800   1.008000   ; qtot 0.337104
 6088          c    204    ccc     C6   6088 0.526324  12.010000   ; qtot 1.333631
 6089          o    204    ccc     O1   6089 -0.39142825  16.000000   ; qtot 0.637125
 6090         oh    204    ccc     O2   6090 -0.56822625  16.000000   ; qtot -0.203686
 6091         ho    204    ccc    H11   6091 0.4186155   1.008000   ; qtot 0.322389
 6092         c3    204    ccc     C7   6092 -0.01321200  12.010000   ; qtot 0.309177
 6093         h1    204    ccc    H12   6093 0.08172200   1.008000   ; qtot 0.390899
 6094         h1    204    ccc    H13   6094 0.08172200   1.008000   ; qtot 0.472621
 6095         c3    204    ccc     C8   6095 -0.22180000  12.010000   ; qtot 0.250821
 6096         hc    204    ccc    H14   6096 0.09671800   1.008000   ; qtot 0.347539
 6097         hc    204    ccc    H15   6097 0.09671800   1.008000   ; qtot 0.444257
 6098          c    204    ccc     C9   6098 0.526324  12.010000   ; qtot 1.440784
 6099          o    204    ccc     O3   6099 -0.39142825  16.000000   ; qtot 0.744278
 6100         oh    204    ccc     O4   6100 -0.56822625  16.000000   ; qtot -0.096533
 6101         ho    204    ccc    H16   6101 0.4186155   1.008000   ; qtot 0.429542
 6102         os    204    ccc     O5   6102 -0.42966500  16.000000   ; qtot -0.000123
; residue  205 ccc rtp ccc q 0.0
 6103         c3    205    ccc     C1   6103 0.50749700  12.010000   ; qtot 0.507374
 6104         h1    205    ccc     H1   6104 -0.02808400   1.008000   ; qtot 0.479290
 6105         h1    205    ccc     H2   6105 -0.02808400   1.008000   ; qtot 0.451206
 6106         c3    205    ccc     C2   6106 -0.15486000  12.010000   ; qtot 0.296346
 6107         hc    205    ccc     H3   6107 0.10266400   1.008000   ; qtot 0.399010
 6108         hc    205    ccc     H4   6108 0.10266400   1.008000   ; qtot 0.501674
 6109         c3    205    ccc     C3   6109 -0.15693500  12.010000   ; qtot 0.344739
 6110         h1    205    ccc     H5   6110 0.08499200   1.008000   ; qtot 0.429731
 6111         h1    205    ccc     H6   6111 0.08499200   1.008000   ; qtot 0.514723
 6112         n3    205    ccc     N1   6112 -0.29948700  14.010000   ; qtot 0.215236
 6113         c3    205    ccc     C4   6113 -0.01321200  12.010000   ; qtot 0.202024
 6114         h1    205    ccc     H7   6114 0.08172200   1.008000   ; qtot 0.283746
 6115         h1    205    ccc     H8   6115 0.08172200   1.008000   ; qtot 0.365468
 6116         c3    205    ccc     C5   6116 -0.22180000  12.010000   ; qtot 0.143668
 6117         hc    205    ccc     H9   6117 0.09671800   1.008000   ; qtot 0.240386
 6118         hc    205    ccc    H10   6118 0.09671800   1.008000   ; qtot 0.337104
 6119          c    205    ccc     C6   6119 0.526324  12.010000   ; qtot 1.333631
 6120          o    205    ccc     O1   6120 -0.39142825  16.000000   ; qtot 0.637125
 6121         oh    205    ccc     O2   6121 -0.56822625  16.000000   ; qtot -0.203686
 6122         ho    205    ccc    H11   6122 0.4186155   1.008000   ; qtot 0.322389
 6123         c3    205    ccc     C7   6123 -0.01321200  12.010000   ; qtot 0.309177
 6124         h1    205    ccc    H12   6124 0.08172200   1.008000   ; qtot 0.390899
 6125         h1    205    ccc    H13   6125 0.08172200   1.008000   ; qtot 0.472621
 6126         c3    205    ccc     C8   6126 -0.22180000  12.010000   ; qtot 0.250821
 6127         hc    205    ccc    H14   6127 0.09671800   1.008000   ; qtot 0.347539
 6128         hc    205    ccc    H15   6128 0.09671800   1.008000   ; qtot 0.444257
 6129          c    205    ccc     C9   6129 0.526324  12.010000   ; qtot 1.440784
 6130          o    205    ccc     O3   6130 -0.39142825  16.000000   ; qtot 0.744278
 6131         oh    205    ccc     O4   6131 -0.56822625  16.000000   ; qtot -0.096533
 6132         ho    205    ccc    H16   6132 0.4186155   1.008000   ; qtot 0.429542
 6133         os    205    ccc     O5   6133 -0.42966500  16.000000   ; qtot -0.000123
; residue  206 ccc rtp ccc q 0.0
 6134         c3    206    ccc     C1   6134 0.50749700  12.010000   ; qtot 0.507374
 6135         h1    206    ccc     H1   6135 -0.02808400   1.008000   ; qtot 0.479290
 6136         h1    206    ccc     H2   6136 -0.02808400   1.008000   ; qtot 0.451206
 6137         c3    206    ccc     C2   6137 -0.15486000  12.010000   ; qtot 0.296346
 6138         hc    206    ccc     H3   6138 0.10266400   1.008000   ; qtot 0.399010
 6139         hc    206    ccc     H4   6139 0.10266400   1.008000   ; qtot 0.501674
 6140         c3    206    ccc     C3   6140 -0.15693500  12.010000   ; qtot 0.344739
 6141         h1    206    ccc     H5   6141 0.08499200   1.008000   ; qtot 0.429731
 6142         h1    206    ccc     H6   6142 0.08499200   1.008000   ; qtot 0.514723
 6143         n3    206    ccc     N1   6143 -0.29948700  14.010000   ; qtot 0.215236
 6144         c3    206    ccc     C4   6144 -0.01321200  12.010000   ; qtot 0.202024
 6145         h1    206    ccc     H7   6145 0.08172200   1.008000   ; qtot 0.283746
 6146         h1    206    ccc     H8   6146 0.08172200   1.008000   ; qtot 0.365468
 6147         c3    206    ccc     C5   6147 -0.22180000  12.010000   ; qtot 0.143668
 6148         hc    206    ccc     H9   6148 0.09671800   1.008000   ; qtot 0.240386
 6149         hc    206    ccc    H10   6149 0.09671800   1.008000   ; qtot 0.337104
 6150          c    206    ccc     C6   6150 0.526324  12.010000   ; qtot 1.333631
 6151          o    206    ccc     O1   6151 -0.39142825  16.000000   ; qtot 0.637125
 6152         oh    206    ccc     O2   6152 -0.56822625  16.000000   ; qtot -0.203686
 6153         ho    206    ccc    H11   6153 0.4186155   1.008000   ; qtot 0.322389
 6154         c3    206    ccc     C7   6154 -0.01321200  12.010000   ; qtot 0.309177
 6155         h1    206    ccc    H12   6155 0.08172200   1.008000   ; qtot 0.390899
 6156         h1    206    ccc    H13   6156 0.08172200   1.008000   ; qtot 0.472621
 6157         c3    206    ccc     C8   6157 -0.22180000  12.010000   ; qtot 0.250821
 6158         hc    206    ccc    H14   6158 0.09671800   1.008000   ; qtot 0.347539
 6159         hc    206    ccc    H15   6159 0.09671800   1.008000   ; qtot 0.444257
 6160          c    206    ccc     C9   6160 0.526324  12.010000   ; qtot 1.440784
 6161          o    206    ccc     O3   6161 -0.39142825  16.000000   ; qtot 0.744278
 6162         oh    206    ccc     O4   6162 -0.56822625  16.000000   ; qtot -0.096533
 6163         ho    206    ccc    H16   6163 0.4186155   1.008000   ; qtot 0.429542
 6164         os    206    ccc     O5   6164 -0.42966500  16.000000   ; qtot -0.000123
; residue  207 ccc rtp ccc q 0.0
 6165         c3    207    ccc     C1   6165 0.50749700  12.010000   ; qtot 0.507374
 6166         h1    207    ccc     H1   6166 -0.02808400   1.008000   ; qtot 0.479290
 6167         h1    207    ccc     H2   6167 -0.02808400   1.008000   ; qtot 0.451206
 6168         c3    207    ccc     C2   6168 -0.15486000  12.010000   ; qtot 0.296346
 6169         hc    207    ccc     H3   6169 0.10266400   1.008000   ; qtot 0.399010
 6170         hc    207    ccc     H4   6170 0.10266400   1.008000   ; qtot 0.501674
 6171         c3    207    ccc     C3   6171 -0.15693500  12.010000   ; qtot 0.344739
 6172         h1    207    ccc     H5   6172 0.08499200   1.008000   ; qtot 0.429731
 6173         h1    207    ccc     H6   6173 0.08499200   1.008000   ; qtot 0.514723
 6174         n3    207    ccc     N1   6174 -0.29948700  14.010000   ; qtot 0.215236
 6175         c3    207    ccc     C4   6175 -0.01321200  12.010000   ; qtot 0.202024
 6176         h1    207    ccc     H7   6176 0.08172200   1.008000   ; qtot 0.283746
 6177         h1    207    ccc     H8   6177 0.08172200   1.008000   ; qtot 0.365468
 6178         c3    207    ccc     C5   6178 -0.22180000  12.010000   ; qtot 0.143668
 6179         hc    207    ccc     H9   6179 0.09671800   1.008000   ; qtot 0.240386
 6180         hc    207    ccc    H10   6180 0.09671800   1.008000   ; qtot 0.337104
 6181          c    207    ccc     C6   6181 0.526324  12.010000   ; qtot 1.333631
 6182          o    207    ccc     O1   6182 -0.39142825  16.000000   ; qtot 0.637125
 6183         oh    207    ccc     O2   6183 -0.56822625  16.000000   ; qtot -0.203686
 6184         ho    207    ccc    H11   6184 0.4186155   1.008000   ; qtot 0.322389
 6185         c3    207    ccc     C7   6185 -0.01321200  12.010000   ; qtot 0.309177
 6186         h1    207    ccc    H12   6186 0.08172200   1.008000   ; qtot 0.390899
 6187         h1    207    ccc    H13   6187 0.08172200   1.008000   ; qtot 0.472621
 6188         c3    207    ccc     C8   6188 -0.22180000  12.010000   ; qtot 0.250821
 6189         hc    207    ccc    H14   6189 0.09671800   1.008000   ; qtot 0.347539
 6190         hc    207    ccc    H15   6190 0.09671800   1.008000   ; qtot 0.444257
 6191          c    207    ccc     C9   6191 0.526324  12.010000   ; qtot 1.440784
 6192          o    207    ccc     O3   6192 -0.39142825  16.000000   ; qtot 0.744278
 6193         oh    207    ccc     O4   6193 -0.56822625  16.000000   ; qtot -0.096533
 6194         ho    207    ccc    H16   6194 0.4186155   1.008000   ; qtot 0.429542
 6195         os    207    ccc     O5   6195 -0.42966500  16.000000   ; qtot -0.000123
; residue  208 ccc rtp ccc q 0.0
 6196         c3    208    ccc     C1   6196 0.50749700  12.010000   ; qtot 0.507374
 6197         h1    208    ccc     H1   6197 -0.02808400   1.008000   ; qtot 0.479290
 6198         h1    208    ccc     H2   6198 -0.02808400   1.008000   ; qtot 0.451206
 6199         c3    208    ccc     C2   6199 -0.15486000  12.010000   ; qtot 0.296346
 6200         hc    208    ccc     H3   6200 0.10266400   1.008000   ; qtot 0.399010
 6201         hc    208    ccc     H4   6201 0.10266400   1.008000   ; qtot 0.501674
 6202         c3    208    ccc     C3   6202 -0.15693500  12.010000   ; qtot 0.344739
 6203         h1    208    ccc     H5   6203 0.08499200   1.008000   ; qtot 0.429731
 6204         h1    208    ccc     H6   6204 0.08499200   1.008000   ; qtot 0.514723
 6205         n3    208    ccc     N1   6205 -0.29948700  14.010000   ; qtot 0.215236
 6206         c3    208    ccc     C4   6206 -0.01321200  12.010000   ; qtot 0.202024
 6207         h1    208    ccc     H7   6207 0.08172200   1.008000   ; qtot 0.283746
 6208         h1    208    ccc     H8   6208 0.08172200   1.008000   ; qtot 0.365468
 6209         c3    208    ccc     C5   6209 -0.22180000  12.010000   ; qtot 0.143668
 6210         hc    208    ccc     H9   6210 0.09671800   1.008000   ; qtot 0.240386
 6211         hc    208    ccc    H10   6211 0.09671800   1.008000   ; qtot 0.337104
 6212          c    208    ccc     C6   6212 0.526324  12.010000   ; qtot 1.333631
 6213          o    208    ccc     O1   6213 -0.39142825  16.000000   ; qtot 0.637125
 6214         oh    208    ccc     O2   6214 -0.56822625  16.000000   ; qtot -0.203686
 6215         ho    208    ccc    H11   6215 0.4186155   1.008000   ; qtot 0.322389
 6216         c3    208    ccc     C7   6216 -0.01321200  12.010000   ; qtot 0.309177
 6217         h1    208    ccc    H12   6217 0.08172200   1.008000   ; qtot 0.390899
 6218         h1    208    ccc    H13   6218 0.08172200   1.008000   ; qtot 0.472621
 6219         c3    208    ccc     C8   6219 -0.22180000  12.010000   ; qtot 0.250821
 6220         hc    208    ccc    H14   6220 0.09671800   1.008000   ; qtot 0.347539
 6221         hc    208    ccc    H15   6221 0.09671800   1.008000   ; qtot 0.444257
 6222          c    208    ccc     C9   6222 0.526324  12.010000   ; qtot 1.440784
 6223          o    208    ccc     O3   6223 -0.39142825  16.000000   ; qtot 0.744278
 6224         oh    208    ccc     O4   6224 -0.56822625  16.000000   ; qtot -0.096533
 6225         ho    208    ccc    H16   6225 0.4186155   1.008000   ; qtot 0.429542
 6226         os    208    ccc     O5   6226 -0.42966500  16.000000   ; qtot -0.000123
; residue  209 ccc rtp ccc q 0.0
 6227         c3    209    ccc     C1   6227 0.50749700  12.010000   ; qtot 0.507374
 6228         h1    209    ccc     H1   6228 -0.02808400   1.008000   ; qtot 0.479290
 6229         h1    209    ccc     H2   6229 -0.02808400   1.008000   ; qtot 0.451206
 6230         c3    209    ccc     C2   6230 -0.15486000  12.010000   ; qtot 0.296346
 6231         hc    209    ccc     H3   6231 0.10266400   1.008000   ; qtot 0.399010
 6232         hc    209    ccc     H4   6232 0.10266400   1.008000   ; qtot 0.501674
 6233         c3    209    ccc     C3   6233 -0.15693500  12.010000   ; qtot 0.344739
 6234         h1    209    ccc     H5   6234 0.08499200   1.008000   ; qtot 0.429731
 6235         h1    209    ccc     H6   6235 0.08499200   1.008000   ; qtot 0.514723
 6236         n3    209    ccc     N1   6236 -0.29948700  14.010000   ; qtot 0.215236
 6237         c3    209    ccc     C4   6237 -0.01321200  12.010000   ; qtot 0.202024
 6238         h1    209    ccc     H7   6238 0.08172200   1.008000   ; qtot 0.283746
 6239         h1    209    ccc     H8   6239 0.08172200   1.008000   ; qtot 0.365468
 6240         c3    209    ccc     C5   6240 -0.22180000  12.010000   ; qtot 0.143668
 6241         hc    209    ccc     H9   6241 0.09671800   1.008000   ; qtot 0.240386
 6242         hc    209    ccc    H10   6242 0.09671800   1.008000   ; qtot 0.337104
 6243          c    209    ccc     C6   6243 0.526324  12.010000   ; qtot 1.333631
 6244          o    209    ccc     O1   6244 -0.39142825  16.000000   ; qtot 0.637125
 6245         oh    209    ccc     O2   6245 -0.56822625  16.000000   ; qtot -0.203686
 6246         ho    209    ccc    H11   6246 0.4186155   1.008000   ; qtot 0.322389
 6247         c3    209    ccc     C7   6247 -0.01321200  12.010000   ; qtot 0.309177
 6248         h1    209    ccc    H12   6248 0.08172200   1.008000   ; qtot 0.390899
 6249         h1    209    ccc    H13   6249 0.08172200   1.008000   ; qtot 0.472621
 6250         c3    209    ccc     C8   6250 -0.22180000  12.010000   ; qtot 0.250821
 6251         hc    209    ccc    H14   6251 0.09671800   1.008000   ; qtot 0.347539
 6252         hc    209    ccc    H15   6252 0.09671800   1.008000   ; qtot 0.444257
 6253          c    209    ccc     C9   6253 0.526324  12.010000   ; qtot 1.440784
 6254          o    209    ccc     O3   6254 -0.39142825  16.000000   ; qtot 0.744278
 6255         oh    209    ccc     O4   6255 -0.56822625  16.000000   ; qtot -0.096533
 6256         ho    209    ccc    H16   6256 0.4186155   1.008000   ; qtot 0.429542
 6257         os    209    ccc     O5   6257 -0.42966500  16.000000   ; qtot -0.000123
; residue  210 ccc rtp ccc q 0.0
 6258         c3    210    ccc     C1   6258 0.50749700  12.010000   ; qtot 0.507374
 6259         h1    210    ccc     H1   6259 -0.02808400   1.008000   ; qtot 0.479290
 6260         h1    210    ccc     H2   6260 -0.02808400   1.008000   ; qtot 0.451206
 6261         c3    210    ccc     C2   6261 -0.15486000  12.010000   ; qtot 0.296346
 6262         hc    210    ccc     H3   6262 0.10266400   1.008000   ; qtot 0.399010
 6263         hc    210    ccc     H4   6263 0.10266400   1.008000   ; qtot 0.501674
 6264         c3    210    ccc     C3   6264 -0.15693500  12.010000   ; qtot 0.344739
 6265         h1    210    ccc     H5   6265 0.08499200   1.008000   ; qtot 0.429731
 6266         h1    210    ccc     H6   6266 0.08499200   1.008000   ; qtot 0.514723
 6267         n3    210    ccc     N1   6267 -0.29948700  14.010000   ; qtot 0.215236
 6268         c3    210    ccc     C4   6268 -0.01321200  12.010000   ; qtot 0.202024
 6269         h1    210    ccc     H7   6269 0.08172200   1.008000   ; qtot 0.283746
 6270         h1    210    ccc     H8   6270 0.08172200   1.008000   ; qtot 0.365468
 6271         c3    210    ccc     C5   6271 -0.22180000  12.010000   ; qtot 0.143668
 6272         hc    210    ccc     H9   6272 0.09671800   1.008000   ; qtot 0.240386
 6273         hc    210    ccc    H10   6273 0.09671800   1.008000   ; qtot 0.337104
 6274          c    210    ccc     C6   6274 0.526324  12.010000   ; qtot 1.333631
 6275          o    210    ccc     O1   6275 -0.39142825  16.000000   ; qtot 0.637125
 6276         oh    210    ccc     O2   6276 -0.56822625  16.000000   ; qtot -0.203686
 6277         ho    210    ccc    H11   6277 0.4186155   1.008000   ; qtot 0.322389
 6278         c3    210    ccc     C7   6278 -0.01321200  12.010000   ; qtot 0.309177
 6279         h1    210    ccc    H12   6279 0.08172200   1.008000   ; qtot 0.390899
 6280         h1    210    ccc    H13   6280 0.08172200   1.008000   ; qtot 0.472621
 6281         c3    210    ccc     C8   6281 -0.22180000  12.010000   ; qtot 0.250821
 6282         hc    210    ccc    H14   6282 0.09671800   1.008000   ; qtot 0.347539
 6283         hc    210    ccc    H15   6283 0.09671800   1.008000   ; qtot 0.444257
 6284          c    210    ccc     C9   6284 0.526324  12.010000   ; qtot 1.440784
 6285          o    210    ccc     O3   6285 -0.39142825  16.000000   ; qtot 0.744278
 6286         oh    210    ccc     O4   6286 -0.56822625  16.000000   ; qtot -0.096533
 6287         ho    210    ccc    H16   6287 0.4186155   1.008000   ; qtot 0.429542
 6288         os    210    ccc     O5   6288 -0.42966500  16.000000   ; qtot -0.000123
; residue  211 ccc rtp ccc q 0.0
 6289         c3    211    ccc     C1   6289 0.50749700  12.010000   ; qtot 0.507374
 6290         h1    211    ccc     H1   6290 -0.02808400   1.008000   ; qtot 0.479290
 6291         h1    211    ccc     H2   6291 -0.02808400   1.008000   ; qtot 0.451206
 6292         c3    211    ccc     C2   6292 -0.15486000  12.010000   ; qtot 0.296346
 6293         hc    211    ccc     H3   6293 0.10266400   1.008000   ; qtot 0.399010
 6294         hc    211    ccc     H4   6294 0.10266400   1.008000   ; qtot 0.501674
 6295         c3    211    ccc     C3   6295 -0.15693500  12.010000   ; qtot 0.344739
 6296         h1    211    ccc     H5   6296 0.08499200   1.008000   ; qtot 0.429731
 6297         h1    211    ccc     H6   6297 0.08499200   1.008000   ; qtot 0.514723
 6298         n3    211    ccc     N1   6298 -0.29948700  14.010000   ; qtot 0.215236
 6299         c3    211    ccc     C4   6299 -0.01321200  12.010000   ; qtot 0.202024
 6300         h1    211    ccc     H7   6300 0.08172200   1.008000   ; qtot 0.283746
 6301         h1    211    ccc     H8   6301 0.08172200   1.008000   ; qtot 0.365468
 6302         c3    211    ccc     C5   6302 -0.22180000  12.010000   ; qtot 0.143668
 6303         hc    211    ccc     H9   6303 0.09671800   1.008000   ; qtot 0.240386
 6304         hc    211    ccc    H10   6304 0.09671800   1.008000   ; qtot 0.337104
 6305          c    211    ccc     C6   6305 0.526324  12.010000   ; qtot 1.333631
 6306          o    211    ccc     O1   6306 -0.39142825  16.000000   ; qtot 0.637125
 6307         oh    211    ccc     O2   6307 -0.56822625  16.000000   ; qtot -0.203686
 6308         ho    211    ccc    H11   6308 0.4186155   1.008000   ; qtot 0.322389
 6309         c3    211    ccc     C7   6309 -0.01321200  12.010000   ; qtot 0.309177
 6310         h1    211    ccc    H12   6310 0.08172200   1.008000   ; qtot 0.390899
 6311         h1    211    ccc    H13   6311 0.08172200   1.008000   ; qtot 0.472621
 6312         c3    211    ccc     C8   6312 -0.22180000  12.010000   ; qtot 0.250821
 6313         hc    211    ccc    H14   6313 0.09671800   1.008000   ; qtot 0.347539
 6314         hc    211    ccc    H15   6314 0.09671800   1.008000   ; qtot 0.444257
 6315          c    211    ccc     C9   6315 0.526324  12.010000   ; qtot 1.440784
 6316          o    211    ccc     O3   6316 -0.39142825  16.000000   ; qtot 0.744278
 6317         oh    211    ccc     O4   6317 -0.56822625  16.000000   ; qtot -0.096533
 6318         ho    211    ccc    H16   6318 0.4186155   1.008000   ; qtot 0.429542
 6319         os    211    ccc     O5   6319 -0.42966500  16.000000   ; qtot -0.000123
; residue  212 ccc rtp ccc q 0.0
 6320         c3    212    ccc     C1   6320 0.50749700  12.010000   ; qtot 0.507374
 6321         h1    212    ccc     H1   6321 -0.02808400   1.008000   ; qtot 0.479290
 6322         h1    212    ccc     H2   6322 -0.02808400   1.008000   ; qtot 0.451206
 6323         c3    212    ccc     C2   6323 -0.15486000  12.010000   ; qtot 0.296346
 6324         hc    212    ccc     H3   6324 0.10266400   1.008000   ; qtot 0.399010
 6325         hc    212    ccc     H4   6325 0.10266400   1.008000   ; qtot 0.501674
 6326         c3    212    ccc     C3   6326 -0.15693500  12.010000   ; qtot 0.344739
 6327         h1    212    ccc     H5   6327 0.08499200   1.008000   ; qtot 0.429731
 6328         h1    212    ccc     H6   6328 0.08499200   1.008000   ; qtot 0.514723
 6329         n3    212    ccc     N1   6329 -0.29948700  14.010000   ; qtot 0.215236
 6330         c3    212    ccc     C4   6330 -0.01321200  12.010000   ; qtot 0.202024
 6331         h1    212    ccc     H7   6331 0.08172200   1.008000   ; qtot 0.283746
 6332         h1    212    ccc     H8   6332 0.08172200   1.008000   ; qtot 0.365468
 6333         c3    212    ccc     C5   6333 -0.22180000  12.010000   ; qtot 0.143668
 6334         hc    212    ccc     H9   6334 0.09671800   1.008000   ; qtot 0.240386
 6335         hc    212    ccc    H10   6335 0.09671800   1.008000   ; qtot 0.337104
 6336          c    212    ccc     C6   6336 0.526324  12.010000   ; qtot 1.333631
 6337          o    212    ccc     O1   6337 -0.39142825  16.000000   ; qtot 0.637125
 6338         oh    212    ccc     O2   6338 -0.56822625  16.000000   ; qtot -0.203686
 6339         ho    212    ccc    H11   6339 0.4186155   1.008000   ; qtot 0.322389
 6340         c3    212    ccc     C7   6340 -0.01321200  12.010000   ; qtot 0.309177
 6341         h1    212    ccc    H12   6341 0.08172200   1.008000   ; qtot 0.390899
 6342         h1    212    ccc    H13   6342 0.08172200   1.008000   ; qtot 0.472621
 6343         c3    212    ccc     C8   6343 -0.22180000  12.010000   ; qtot 0.250821
 6344         hc    212    ccc    H14   6344 0.09671800   1.008000   ; qtot 0.347539
 6345         hc    212    ccc    H15   6345 0.09671800   1.008000   ; qtot 0.444257
 6346          c    212    ccc     C9   6346 0.526324  12.010000   ; qtot 1.440784
 6347          o    212    ccc     O3   6347 -0.39142825  16.000000   ; qtot 0.744278
 6348         oh    212    ccc     O4   6348 -0.56822625  16.000000   ; qtot -0.096533
 6349         ho    212    ccc    H16   6349 0.4186155   1.008000   ; qtot 0.429542
 6350         os    212    ccc     O5   6350 -0.42966500  16.000000   ; qtot -0.000123
; residue  213 ccc rtp ccc q 0.0
 6351         c3    213    ccc     C1   6351 0.50749700  12.010000   ; qtot 0.507374
 6352         h1    213    ccc     H1   6352 -0.02808400   1.008000   ; qtot 0.479290
 6353         h1    213    ccc     H2   6353 -0.02808400   1.008000   ; qtot 0.451206
 6354         c3    213    ccc     C2   6354 -0.15486000  12.010000   ; qtot 0.296346
 6355         hc    213    ccc     H3   6355 0.10266400   1.008000   ; qtot 0.399010
 6356         hc    213    ccc     H4   6356 0.10266400   1.008000   ; qtot 0.501674
 6357         c3    213    ccc     C3   6357 -0.15693500  12.010000   ; qtot 0.344739
 6358         h1    213    ccc     H5   6358 0.08499200   1.008000   ; qtot 0.429731
 6359         h1    213    ccc     H6   6359 0.08499200   1.008000   ; qtot 0.514723
 6360         n3    213    ccc     N1   6360 -0.29948700  14.010000   ; qtot 0.215236
 6361         c3    213    ccc     C4   6361 -0.01321200  12.010000   ; qtot 0.202024
 6362         h1    213    ccc     H7   6362 0.08172200   1.008000   ; qtot 0.283746
 6363         h1    213    ccc     H8   6363 0.08172200   1.008000   ; qtot 0.365468
 6364         c3    213    ccc     C5   6364 -0.22180000  12.010000   ; qtot 0.143668
 6365         hc    213    ccc     H9   6365 0.09671800   1.008000   ; qtot 0.240386
 6366         hc    213    ccc    H10   6366 0.09671800   1.008000   ; qtot 0.337104
 6367          c    213    ccc     C6   6367 0.526324  12.010000   ; qtot 1.333631
 6368          o    213    ccc     O1   6368 -0.39142825  16.000000   ; qtot 0.637125
 6369         oh    213    ccc     O2   6369 -0.56822625  16.000000   ; qtot -0.203686
 6370         ho    213    ccc    H11   6370 0.4186155   1.008000   ; qtot 0.322389
 6371         c3    213    ccc     C7   6371 -0.01321200  12.010000   ; qtot 0.309177
 6372         h1    213    ccc    H12   6372 0.08172200   1.008000   ; qtot 0.390899
 6373         h1    213    ccc    H13   6373 0.08172200   1.008000   ; qtot 0.472621
 6374         c3    213    ccc     C8   6374 -0.22180000  12.010000   ; qtot 0.250821
 6375         hc    213    ccc    H14   6375 0.09671800   1.008000   ; qtot 0.347539
 6376         hc    213    ccc    H15   6376 0.09671800   1.008000   ; qtot 0.444257
 6377          c    213    ccc     C9   6377 0.526324  12.010000   ; qtot 1.440784
 6378          o    213    ccc     O3   6378 -0.39142825  16.000000   ; qtot 0.744278
 6379         oh    213    ccc     O4   6379 -0.56822625  16.000000   ; qtot -0.096533
 6380         ho    213    ccc    H16   6380 0.4186155   1.008000   ; qtot 0.429542
 6381         os    213    ccc     O5   6381 -0.42966500  16.000000   ; qtot -0.000123
; residue  214 ccc rtp ccc q 0.0
 6382         c3    214    ccc     C1   6382 0.50749700  12.010000   ; qtot 0.507374
 6383         h1    214    ccc     H1   6383 -0.02808400   1.008000   ; qtot 0.479290
 6384         h1    214    ccc     H2   6384 -0.02808400   1.008000   ; qtot 0.451206
 6385         c3    214    ccc     C2   6385 -0.15486000  12.010000   ; qtot 0.296346
 6386         hc    214    ccc     H3   6386 0.10266400   1.008000   ; qtot 0.399010
 6387         hc    214    ccc     H4   6387 0.10266400   1.008000   ; qtot 0.501674
 6388         c3    214    ccc     C3   6388 -0.15693500  12.010000   ; qtot 0.344739
 6389         h1    214    ccc     H5   6389 0.08499200   1.008000   ; qtot 0.429731
 6390         h1    214    ccc     H6   6390 0.08499200   1.008000   ; qtot 0.514723
 6391         n3    214    ccc     N1   6391 -0.29948700  14.010000   ; qtot 0.215236
 6392         c3    214    ccc     C4   6392 -0.01321200  12.010000   ; qtot 0.202024
 6393         h1    214    ccc     H7   6393 0.08172200   1.008000   ; qtot 0.283746
 6394         h1    214    ccc     H8   6394 0.08172200   1.008000   ; qtot 0.365468
 6395         c3    214    ccc     C5   6395 -0.22180000  12.010000   ; qtot 0.143668
 6396         hc    214    ccc     H9   6396 0.09671800   1.008000   ; qtot 0.240386
 6397         hc    214    ccc    H10   6397 0.09671800   1.008000   ; qtot 0.337104
 6398          c    214    ccc     C6   6398 0.526324  12.010000   ; qtot 1.333631
 6399          o    214    ccc     O1   6399 -0.39142825  16.000000   ; qtot 0.637125
 6400         oh    214    ccc     O2   6400 -0.56822625  16.000000   ; qtot -0.203686
 6401         ho    214    ccc    H11   6401 0.4186155   1.008000   ; qtot 0.322389
 6402         c3    214    ccc     C7   6402 -0.01321200  12.010000   ; qtot 0.309177
 6403         h1    214    ccc    H12   6403 0.08172200   1.008000   ; qtot 0.390899
 6404         h1    214    ccc    H13   6404 0.08172200   1.008000   ; qtot 0.472621
 6405         c3    214    ccc     C8   6405 -0.22180000  12.010000   ; qtot 0.250821
 6406         hc    214    ccc    H14   6406 0.09671800   1.008000   ; qtot 0.347539
 6407         hc    214    ccc    H15   6407 0.09671800   1.008000   ; qtot 0.444257
 6408          c    214    ccc     C9   6408 0.526324  12.010000   ; qtot 1.440784
 6409          o    214    ccc     O3   6409 -0.39142825  16.000000   ; qtot 0.744278
 6410         oh    214    ccc     O4   6410 -0.56822625  16.000000   ; qtot -0.096533
 6411         ho    214    ccc    H16   6411 0.4186155   1.008000   ; qtot 0.429542
 6412         os    214    ccc     O5   6412 -0.42966500  16.000000   ; qtot -0.000123
; residue  215 ccc rtp ccc q 0.0
 6413         c3    215    ccc     C1   6413 0.50749700  12.010000   ; qtot 0.507374
 6414         h1    215    ccc     H1   6414 -0.02808400   1.008000   ; qtot 0.479290
 6415         h1    215    ccc     H2   6415 -0.02808400   1.008000   ; qtot 0.451206
 6416         c3    215    ccc     C2   6416 -0.15486000  12.010000   ; qtot 0.296346
 6417         hc    215    ccc     H3   6417 0.10266400   1.008000   ; qtot 0.399010
 6418         hc    215    ccc     H4   6418 0.10266400   1.008000   ; qtot 0.501674
 6419         c3    215    ccc     C3   6419 -0.15693500  12.010000   ; qtot 0.344739
 6420         h1    215    ccc     H5   6420 0.08499200   1.008000   ; qtot 0.429731
 6421         h1    215    ccc     H6   6421 0.08499200   1.008000   ; qtot 0.514723
 6422         n3    215    ccc     N1   6422 -0.29948700  14.010000   ; qtot 0.215236
 6423         c3    215    ccc     C4   6423 -0.01321200  12.010000   ; qtot 0.202024
 6424         h1    215    ccc     H7   6424 0.08172200   1.008000   ; qtot 0.283746
 6425         h1    215    ccc     H8   6425 0.08172200   1.008000   ; qtot 0.365468
 6426         c3    215    ccc     C5   6426 -0.22180000  12.010000   ; qtot 0.143668
 6427         hc    215    ccc     H9   6427 0.09671800   1.008000   ; qtot 0.240386
 6428         hc    215    ccc    H10   6428 0.09671800   1.008000   ; qtot 0.337104
 6429          c    215    ccc     C6   6429 0.526324  12.010000   ; qtot 1.333631
 6430          o    215    ccc     O1   6430 -0.39142825  16.000000   ; qtot 0.637125
 6431         oh    215    ccc     O2   6431 -0.56822625  16.000000   ; qtot -0.203686
 6432         ho    215    ccc    H11   6432 0.4186155   1.008000   ; qtot 0.322389
 6433         c3    215    ccc     C7   6433 -0.01321200  12.010000   ; qtot 0.309177
 6434         h1    215    ccc    H12   6434 0.08172200   1.008000   ; qtot 0.390899
 6435         h1    215    ccc    H13   6435 0.08172200   1.008000   ; qtot 0.472621
 6436         c3    215    ccc     C8   6436 -0.22180000  12.010000   ; qtot 0.250821
 6437         hc    215    ccc    H14   6437 0.09671800   1.008000   ; qtot 0.347539
 6438         hc    215    ccc    H15   6438 0.09671800   1.008000   ; qtot 0.444257
 6439          c    215    ccc     C9   6439 0.526324  12.010000   ; qtot 1.440784
 6440          o    215    ccc     O3   6440 -0.39142825  16.000000   ; qtot 0.744278
 6441         oh    215    ccc     O4   6441 -0.56822625  16.000000   ; qtot -0.096533
 6442         ho    215    ccc    H16   6442 0.4186155   1.008000   ; qtot 0.429542
 6443         os    215    ccc     O5   6443 -0.42966500  16.000000   ; qtot -0.000123
; residue  216 ccc rtp ccc q 0.0
 6444         c3    216    ccc     C1   6444 0.50749700  12.010000   ; qtot 0.507374
 6445         h1    216    ccc     H1   6445 -0.02808400   1.008000   ; qtot 0.479290
 6446         h1    216    ccc     H2   6446 -0.02808400   1.008000   ; qtot 0.451206
 6447         c3    216    ccc     C2   6447 -0.15486000  12.010000   ; qtot 0.296346
 6448         hc    216    ccc     H3   6448 0.10266400   1.008000   ; qtot 0.399010
 6449         hc    216    ccc     H4   6449 0.10266400   1.008000   ; qtot 0.501674
 6450         c3    216    ccc     C3   6450 -0.15693500  12.010000   ; qtot 0.344739
 6451         h1    216    ccc     H5   6451 0.08499200   1.008000   ; qtot 0.429731
 6452         h1    216    ccc     H6   6452 0.08499200   1.008000   ; qtot 0.514723
 6453         n3    216    ccc     N1   6453 -0.29948700  14.010000   ; qtot 0.215236
 6454         c3    216    ccc     C4   6454 -0.01321200  12.010000   ; qtot 0.202024
 6455         h1    216    ccc     H7   6455 0.08172200   1.008000   ; qtot 0.283746
 6456         h1    216    ccc     H8   6456 0.08172200   1.008000   ; qtot 0.365468
 6457         c3    216    ccc     C5   6457 -0.22180000  12.010000   ; qtot 0.143668
 6458         hc    216    ccc     H9   6458 0.09671800   1.008000   ; qtot 0.240386
 6459         hc    216    ccc    H10   6459 0.09671800   1.008000   ; qtot 0.337104
 6460          c    216    ccc     C6   6460 0.526324  12.010000   ; qtot 1.333631
 6461          o    216    ccc     O1   6461 -0.39142825  16.000000   ; qtot 0.637125
 6462         oh    216    ccc     O2   6462 -0.56822625  16.000000   ; qtot -0.203686
 6463         ho    216    ccc    H11   6463 0.4186155   1.008000   ; qtot 0.322389
 6464         c3    216    ccc     C7   6464 -0.01321200  12.010000   ; qtot 0.309177
 6465         h1    216    ccc    H12   6465 0.08172200   1.008000   ; qtot 0.390899
 6466         h1    216    ccc    H13   6466 0.08172200   1.008000   ; qtot 0.472621
 6467         c3    216    ccc     C8   6467 -0.22180000  12.010000   ; qtot 0.250821
 6468         hc    216    ccc    H14   6468 0.09671800   1.008000   ; qtot 0.347539
 6469         hc    216    ccc    H15   6469 0.09671800   1.008000   ; qtot 0.444257
 6470          c    216    ccc     C9   6470 0.526324  12.010000   ; qtot 1.440784
 6471          o    216    ccc     O3   6471 -0.39142825  16.000000   ; qtot 0.744278
 6472         oh    216    ccc     O4   6472 -0.56822625  16.000000   ; qtot -0.096533
 6473         ho    216    ccc    H16   6473 0.4186155   1.008000   ; qtot 0.429542
 6474         os    216    ccc     O5   6474 -0.42966500  16.000000   ; qtot -0.000123
; residue  217 ccc rtp ccc q 0.0
 6475         c3    217    ccc     C1   6475 0.50749700  12.010000   ; qtot 0.507374
 6476         h1    217    ccc     H1   6476 -0.02808400   1.008000   ; qtot 0.479290
 6477         h1    217    ccc     H2   6477 -0.02808400   1.008000   ; qtot 0.451206
 6478         c3    217    ccc     C2   6478 -0.15486000  12.010000   ; qtot 0.296346
 6479         hc    217    ccc     H3   6479 0.10266400   1.008000   ; qtot 0.399010
 6480         hc    217    ccc     H4   6480 0.10266400   1.008000   ; qtot 0.501674
 6481         c3    217    ccc     C3   6481 -0.15693500  12.010000   ; qtot 0.344739
 6482         h1    217    ccc     H5   6482 0.08499200   1.008000   ; qtot 0.429731
 6483         h1    217    ccc     H6   6483 0.08499200   1.008000   ; qtot 0.514723
 6484         n3    217    ccc     N1   6484 -0.29948700  14.010000   ; qtot 0.215236
 6485         c3    217    ccc     C4   6485 -0.01321200  12.010000   ; qtot 0.202024
 6486         h1    217    ccc     H7   6486 0.08172200   1.008000   ; qtot 0.283746
 6487         h1    217    ccc     H8   6487 0.08172200   1.008000   ; qtot 0.365468
 6488         c3    217    ccc     C5   6488 -0.22180000  12.010000   ; qtot 0.143668
 6489         hc    217    ccc     H9   6489 0.09671800   1.008000   ; qtot 0.240386
 6490         hc    217    ccc    H10   6490 0.09671800   1.008000   ; qtot 0.337104
 6491          c    217    ccc     C6   6491 0.526324  12.010000   ; qtot 1.333631
 6492          o    217    ccc     O1   6492 -0.39142825  16.000000   ; qtot 0.637125
 6493         oh    217    ccc     O2   6493 -0.56822625  16.000000   ; qtot -0.203686
 6494         ho    217    ccc    H11   6494 0.4186155   1.008000   ; qtot 0.322389
 6495         c3    217    ccc     C7   6495 -0.01321200  12.010000   ; qtot 0.309177
 6496         h1    217    ccc    H12   6496 0.08172200   1.008000   ; qtot 0.390899
 6497         h1    217    ccc    H13   6497 0.08172200   1.008000   ; qtot 0.472621
 6498         c3    217    ccc     C8   6498 -0.22180000  12.010000   ; qtot 0.250821
 6499         hc    217    ccc    H14   6499 0.09671800   1.008000   ; qtot 0.347539
 6500         hc    217    ccc    H15   6500 0.09671800   1.008000   ; qtot 0.444257
 6501          c    217    ccc     C9   6501 0.526324  12.010000   ; qtot 1.440784
 6502          o    217    ccc     O3   6502 -0.39142825  16.000000   ; qtot 0.744278
 6503         oh    217    ccc     O4   6503 -0.56822625  16.000000   ; qtot -0.096533
 6504         ho    217    ccc    H16   6504 0.4186155   1.008000   ; qtot 0.429542
 6505         os    217    ccc     O5   6505 -0.42966500  16.000000   ; qtot -0.000123
; residue  218 ccc rtp ccc q 0.0
 6506         c3    218    ccc     C1   6506 0.50749700  12.010000   ; qtot 0.507374
 6507         h1    218    ccc     H1   6507 -0.02808400   1.008000   ; qtot 0.479290
 6508         h1    218    ccc     H2   6508 -0.02808400   1.008000   ; qtot 0.451206
 6509         c3    218    ccc     C2   6509 -0.15486000  12.010000   ; qtot 0.296346
 6510         hc    218    ccc     H3   6510 0.10266400   1.008000   ; qtot 0.399010
 6511         hc    218    ccc     H4   6511 0.10266400   1.008000   ; qtot 0.501674
 6512         c3    218    ccc     C3   6512 -0.15693500  12.010000   ; qtot 0.344739
 6513         h1    218    ccc     H5   6513 0.08499200   1.008000   ; qtot 0.429731
 6514         h1    218    ccc     H6   6514 0.08499200   1.008000   ; qtot 0.514723
 6515         n3    218    ccc     N1   6515 -0.29948700  14.010000   ; qtot 0.215236
 6516         c3    218    ccc     C4   6516 -0.01321200  12.010000   ; qtot 0.202024
 6517         h1    218    ccc     H7   6517 0.08172200   1.008000   ; qtot 0.283746
 6518         h1    218    ccc     H8   6518 0.08172200   1.008000   ; qtot 0.365468
 6519         c3    218    ccc     C5   6519 -0.22180000  12.010000   ; qtot 0.143668
 6520         hc    218    ccc     H9   6520 0.09671800   1.008000   ; qtot 0.240386
 6521         hc    218    ccc    H10   6521 0.09671800   1.008000   ; qtot 0.337104
 6522          c    218    ccc     C6   6522 0.526324  12.010000   ; qtot 1.333631
 6523          o    218    ccc     O1   6523 -0.39142825  16.000000   ; qtot 0.637125
 6524         oh    218    ccc     O2   6524 -0.56822625  16.000000   ; qtot -0.203686
 6525         ho    218    ccc    H11   6525 0.4186155   1.008000   ; qtot 0.322389
 6526         c3    218    ccc     C7   6526 -0.01321200  12.010000   ; qtot 0.309177
 6527         h1    218    ccc    H12   6527 0.08172200   1.008000   ; qtot 0.390899
 6528         h1    218    ccc    H13   6528 0.08172200   1.008000   ; qtot 0.472621
 6529         c3    218    ccc     C8   6529 -0.22180000  12.010000   ; qtot 0.250821
 6530         hc    218    ccc    H14   6530 0.09671800   1.008000   ; qtot 0.347539
 6531         hc    218    ccc    H15   6531 0.09671800   1.008000   ; qtot 0.444257
 6532          c    218    ccc     C9   6532 0.526324  12.010000   ; qtot 1.440784
 6533          o    218    ccc     O3   6533 -0.39142825  16.000000   ; qtot 0.744278
 6534         oh    218    ccc     O4   6534 -0.56822625  16.000000   ; qtot -0.096533
 6535         ho    218    ccc    H16   6535 0.4186155   1.008000   ; qtot 0.429542
 6536         os    218    ccc     O5   6536 -0.42966500  16.000000   ; qtot -0.000123
; residue  219 ccc rtp ccc q 0.0
 6537         c3    219    ccc     C1   6537 0.50749700  12.010000   ; qtot 0.507374
 6538         h1    219    ccc     H1   6538 -0.02808400   1.008000   ; qtot 0.479290
 6539         h1    219    ccc     H2   6539 -0.02808400   1.008000   ; qtot 0.451206
 6540         c3    219    ccc     C2   6540 -0.15486000  12.010000   ; qtot 0.296346
 6541         hc    219    ccc     H3   6541 0.10266400   1.008000   ; qtot 0.399010
 6542         hc    219    ccc     H4   6542 0.10266400   1.008000   ; qtot 0.501674
 6543         c3    219    ccc     C3   6543 -0.15693500  12.010000   ; qtot 0.344739
 6544         h1    219    ccc     H5   6544 0.08499200   1.008000   ; qtot 0.429731
 6545         h1    219    ccc     H6   6545 0.08499200   1.008000   ; qtot 0.514723
 6546         n3    219    ccc     N1   6546 -0.29948700  14.010000   ; qtot 0.215236
 6547         c3    219    ccc     C4   6547 -0.01321200  12.010000   ; qtot 0.202024
 6548         h1    219    ccc     H7   6548 0.08172200   1.008000   ; qtot 0.283746
 6549         h1    219    ccc     H8   6549 0.08172200   1.008000   ; qtot 0.365468
 6550         c3    219    ccc     C5   6550 -0.22180000  12.010000   ; qtot 0.143668
 6551         hc    219    ccc     H9   6551 0.09671800   1.008000   ; qtot 0.240386
 6552         hc    219    ccc    H10   6552 0.09671800   1.008000   ; qtot 0.337104
 6553          c    219    ccc     C6   6553 0.526324  12.010000   ; qtot 1.333631
 6554          o    219    ccc     O1   6554 -0.39142825  16.000000   ; qtot 0.637125
 6555         oh    219    ccc     O2   6555 -0.56822625  16.000000   ; qtot -0.203686
 6556         ho    219    ccc    H11   6556 0.4186155   1.008000   ; qtot 0.322389
 6557         c3    219    ccc     C7   6557 -0.01321200  12.010000   ; qtot 0.309177
 6558         h1    219    ccc    H12   6558 0.08172200   1.008000   ; qtot 0.390899
 6559         h1    219    ccc    H13   6559 0.08172200   1.008000   ; qtot 0.472621
 6560         c3    219    ccc     C8   6560 -0.22180000  12.010000   ; qtot 0.250821
 6561         hc    219    ccc    H14   6561 0.09671800   1.008000   ; qtot 0.347539
 6562         hc    219    ccc    H15   6562 0.09671800   1.008000   ; qtot 0.444257
 6563          c    219    ccc     C9   6563 0.526324  12.010000   ; qtot 1.440784
 6564          o    219    ccc     O3   6564 -0.39142825  16.000000   ; qtot 0.744278
 6565         oh    219    ccc     O4   6565 -0.56822625  16.000000   ; qtot -0.096533
 6566         ho    219    ccc    H16   6566 0.4186155   1.008000   ; qtot 0.429542
 6567         os    219    ccc     O5   6567 -0.42966500  16.000000   ; qtot -0.000123
; residue  220 ccc rtp ccc q 0.0
 6568         c3    220    ccc     C1   6568 0.50749700  12.010000   ; qtot 0.507374
 6569         h1    220    ccc     H1   6569 -0.02808400   1.008000   ; qtot 0.479290
 6570         h1    220    ccc     H2   6570 -0.02808400   1.008000   ; qtot 0.451206
 6571         c3    220    ccc     C2   6571 -0.15486000  12.010000   ; qtot 0.296346
 6572         hc    220    ccc     H3   6572 0.10266400   1.008000   ; qtot 0.399010
 6573         hc    220    ccc     H4   6573 0.10266400   1.008000   ; qtot 0.501674
 6574         c3    220    ccc     C3   6574 -0.15693500  12.010000   ; qtot 0.344739
 6575         h1    220    ccc     H5   6575 0.08499200   1.008000   ; qtot 0.429731
 6576         h1    220    ccc     H6   6576 0.08499200   1.008000   ; qtot 0.514723
 6577         n3    220    ccc     N1   6577 -0.29948700  14.010000   ; qtot 0.215236
 6578         c3    220    ccc     C4   6578 -0.01321200  12.010000   ; qtot 0.202024
 6579         h1    220    ccc     H7   6579 0.08172200   1.008000   ; qtot 0.283746
 6580         h1    220    ccc     H8   6580 0.08172200   1.008000   ; qtot 0.365468
 6581         c3    220    ccc     C5   6581 -0.22180000  12.010000   ; qtot 0.143668
 6582         hc    220    ccc     H9   6582 0.09671800   1.008000   ; qtot 0.240386
 6583         hc    220    ccc    H10   6583 0.09671800   1.008000   ; qtot 0.337104
 6584          c    220    ccc     C6   6584 0.526324  12.010000   ; qtot 1.333631
 6585          o    220    ccc     O1   6585 -0.39142825  16.000000   ; qtot 0.637125
 6586         oh    220    ccc     O2   6586 -0.56822625  16.000000   ; qtot -0.203686
 6587         ho    220    ccc    H11   6587 0.4186155   1.008000   ; qtot 0.322389
 6588         c3    220    ccc     C7   6588 -0.01321200  12.010000   ; qtot 0.309177
 6589         h1    220    ccc    H12   6589 0.08172200   1.008000   ; qtot 0.390899
 6590         h1    220    ccc    H13   6590 0.08172200   1.008000   ; qtot 0.472621
 6591         c3    220    ccc     C8   6591 -0.22180000  12.010000   ; qtot 0.250821
 6592         hc    220    ccc    H14   6592 0.09671800   1.008000   ; qtot 0.347539
 6593         hc    220    ccc    H15   6593 0.09671800   1.008000   ; qtot 0.444257
 6594          c    220    ccc     C9   6594 0.526324  12.010000   ; qtot 1.440784
 6595          o    220    ccc     O3   6595 -0.39142825  16.000000   ; qtot 0.744278
 6596         oh    220    ccc     O4   6596 -0.56822625  16.000000   ; qtot -0.096533
 6597         ho    220    ccc    H16   6597 0.4186155   1.008000   ; qtot 0.429542
 6598         os    220    ccc     O5   6598 -0.42966500  16.000000   ; qtot -0.000123
; residue  221 ccc rtp ccc q 0.0
 6599         c3    221    ccc     C1   6599 0.50749700  12.010000   ; qtot 0.507374
 6600         h1    221    ccc     H1   6600 -0.02808400   1.008000   ; qtot 0.479290
 6601         h1    221    ccc     H2   6601 -0.02808400   1.008000   ; qtot 0.451206
 6602         c3    221    ccc     C2   6602 -0.15486000  12.010000   ; qtot 0.296346
 6603         hc    221    ccc     H3   6603 0.10266400   1.008000   ; qtot 0.399010
 6604         hc    221    ccc     H4   6604 0.10266400   1.008000   ; qtot 0.501674
 6605         c3    221    ccc     C3   6605 -0.15693500  12.010000   ; qtot 0.344739
 6606         h1    221    ccc     H5   6606 0.08499200   1.008000   ; qtot 0.429731
 6607         h1    221    ccc     H6   6607 0.08499200   1.008000   ; qtot 0.514723
 6608         n3    221    ccc     N1   6608 -0.29948700  14.010000   ; qtot 0.215236
 6609         c3    221    ccc     C4   6609 -0.01321200  12.010000   ; qtot 0.202024
 6610         h1    221    ccc     H7   6610 0.08172200   1.008000   ; qtot 0.283746
 6611         h1    221    ccc     H8   6611 0.08172200   1.008000   ; qtot 0.365468
 6612         c3    221    ccc     C5   6612 -0.22180000  12.010000   ; qtot 0.143668
 6613         hc    221    ccc     H9   6613 0.09671800   1.008000   ; qtot 0.240386
 6614         hc    221    ccc    H10   6614 0.09671800   1.008000   ; qtot 0.337104
 6615          c    221    ccc     C6   6615 0.526324  12.010000   ; qtot 1.333631
 6616          o    221    ccc     O1   6616 -0.39142825  16.000000   ; qtot 0.637125
 6617         oh    221    ccc     O2   6617 -0.56822625  16.000000   ; qtot -0.203686
 6618         ho    221    ccc    H11   6618 0.4186155   1.008000   ; qtot 0.322389
 6619         c3    221    ccc     C7   6619 -0.01321200  12.010000   ; qtot 0.309177
 6620         h1    221    ccc    H12   6620 0.08172200   1.008000   ; qtot 0.390899
 6621         h1    221    ccc    H13   6621 0.08172200   1.008000   ; qtot 0.472621
 6622         c3    221    ccc     C8   6622 -0.22180000  12.010000   ; qtot 0.250821
 6623         hc    221    ccc    H14   6623 0.09671800   1.008000   ; qtot 0.347539
 6624         hc    221    ccc    H15   6624 0.09671800   1.008000   ; qtot 0.444257
 6625          c    221    ccc     C9   6625 0.526324  12.010000   ; qtot 1.440784
 6626          o    221    ccc     O3   6626 -0.39142825  16.000000   ; qtot 0.744278
 6627         oh    221    ccc     O4   6627 -0.56822625  16.000000   ; qtot -0.096533
 6628         ho    221    ccc    H16   6628 0.4186155   1.008000   ; qtot 0.429542
 6629         os    221    ccc     O5   6629 -0.42966500  16.000000   ; qtot -0.000123
; residue  222 ccc rtp ccc q 0.0
 6630         c3    222    ccc     C1   6630 0.50749700  12.010000   ; qtot 0.507374
 6631         h1    222    ccc     H1   6631 -0.02808400   1.008000   ; qtot 0.479290
 6632         h1    222    ccc     H2   6632 -0.02808400   1.008000   ; qtot 0.451206
 6633         c3    222    ccc     C2   6633 -0.15486000  12.010000   ; qtot 0.296346
 6634         hc    222    ccc     H3   6634 0.10266400   1.008000   ; qtot 0.399010
 6635         hc    222    ccc     H4   6635 0.10266400   1.008000   ; qtot 0.501674
 6636         c3    222    ccc     C3   6636 -0.15693500  12.010000   ; qtot 0.344739
 6637         h1    222    ccc     H5   6637 0.08499200   1.008000   ; qtot 0.429731
 6638         h1    222    ccc     H6   6638 0.08499200   1.008000   ; qtot 0.514723
 6639         n3    222    ccc     N1   6639 -0.29948700  14.010000   ; qtot 0.215236
 6640         c3    222    ccc     C4   6640 -0.01321200  12.010000   ; qtot 0.202024
 6641         h1    222    ccc     H7   6641 0.08172200   1.008000   ; qtot 0.283746
 6642         h1    222    ccc     H8   6642 0.08172200   1.008000   ; qtot 0.365468
 6643         c3    222    ccc     C5   6643 -0.22180000  12.010000   ; qtot 0.143668
 6644         hc    222    ccc     H9   6644 0.09671800   1.008000   ; qtot 0.240386
 6645         hc    222    ccc    H10   6645 0.09671800   1.008000   ; qtot 0.337104
 6646          c    222    ccc     C6   6646 0.526324  12.010000   ; qtot 1.333631
 6647          o    222    ccc     O1   6647 -0.39142825  16.000000   ; qtot 0.637125
 6648         oh    222    ccc     O2   6648 -0.56822625  16.000000   ; qtot -0.203686
 6649         ho    222    ccc    H11   6649 0.4186155   1.008000   ; qtot 0.322389
 6650         c3    222    ccc     C7   6650 -0.01321200  12.010000   ; qtot 0.309177
 6651         h1    222    ccc    H12   6651 0.08172200   1.008000   ; qtot 0.390899
 6652         h1    222    ccc    H13   6652 0.08172200   1.008000   ; qtot 0.472621
 6653         c3    222    ccc     C8   6653 -0.22180000  12.010000   ; qtot 0.250821
 6654         hc    222    ccc    H14   6654 0.09671800   1.008000   ; qtot 0.347539
 6655         hc    222    ccc    H15   6655 0.09671800   1.008000   ; qtot 0.444257
 6656          c    222    ccc     C9   6656 0.526324  12.010000   ; qtot 1.440784
 6657          o    222    ccc     O3   6657 -0.39142825  16.000000   ; qtot 0.744278
 6658         oh    222    ccc     O4   6658 -0.56822625  16.000000   ; qtot -0.096533
 6659         ho    222    ccc    H16   6659 0.4186155   1.008000   ; qtot 0.429542
 6660         os    222    ccc     O5   6660 -0.42966500  16.000000   ; qtot -0.000123
; residue  223 ccc rtp ccc q 0.0
 6661         c3    223    ccc     C1   6661 0.50749700  12.010000   ; qtot 0.507374
 6662         h1    223    ccc     H1   6662 -0.02808400   1.008000   ; qtot 0.479290
 6663         h1    223    ccc     H2   6663 -0.02808400   1.008000   ; qtot 0.451206
 6664         c3    223    ccc     C2   6664 -0.15486000  12.010000   ; qtot 0.296346
 6665         hc    223    ccc     H3   6665 0.10266400   1.008000   ; qtot 0.399010
 6666         hc    223    ccc     H4   6666 0.10266400   1.008000   ; qtot 0.501674
 6667         c3    223    ccc     C3   6667 -0.15693500  12.010000   ; qtot 0.344739
 6668         h1    223    ccc     H5   6668 0.08499200   1.008000   ; qtot 0.429731
 6669         h1    223    ccc     H6   6669 0.08499200   1.008000   ; qtot 0.514723
 6670         n3    223    ccc     N1   6670 -0.29948700  14.010000   ; qtot 0.215236
 6671         c3    223    ccc     C4   6671 -0.01321200  12.010000   ; qtot 0.202024
 6672         h1    223    ccc     H7   6672 0.08172200   1.008000   ; qtot 0.283746
 6673         h1    223    ccc     H8   6673 0.08172200   1.008000   ; qtot 0.365468
 6674         c3    223    ccc     C5   6674 -0.22180000  12.010000   ; qtot 0.143668
 6675         hc    223    ccc     H9   6675 0.09671800   1.008000   ; qtot 0.240386
 6676         hc    223    ccc    H10   6676 0.09671800   1.008000   ; qtot 0.337104
 6677          c    223    ccc     C6   6677 0.526324  12.010000   ; qtot 1.333631
 6678          o    223    ccc     O1   6678 -0.39142825  16.000000   ; qtot 0.637125
 6679         oh    223    ccc     O2   6679 -0.56822625  16.000000   ; qtot -0.203686
 6680         ho    223    ccc    H11   6680 0.4186155   1.008000   ; qtot 0.322389
 6681         c3    223    ccc     C7   6681 -0.01321200  12.010000   ; qtot 0.309177
 6682         h1    223    ccc    H12   6682 0.08172200   1.008000   ; qtot 0.390899
 6683         h1    223    ccc    H13   6683 0.08172200   1.008000   ; qtot 0.472621
 6684         c3    223    ccc     C8   6684 -0.22180000  12.010000   ; qtot 0.250821
 6685         hc    223    ccc    H14   6685 0.09671800   1.008000   ; qtot 0.347539
 6686         hc    223    ccc    H15   6686 0.09671800   1.008000   ; qtot 0.444257
 6687          c    223    ccc     C9   6687 0.526324  12.010000   ; qtot 1.440784
 6688          o    223    ccc     O3   6688 -0.39142825  16.000000   ; qtot 0.744278
 6689         oh    223    ccc     O4   6689 -0.56822625  16.000000   ; qtot -0.096533
 6690         ho    223    ccc    H16   6690 0.4186155   1.008000   ; qtot 0.429542
 6691         os    223    ccc     O5   6691 -0.42966500  16.000000   ; qtot -0.000123
; residue  224 ccc rtp ccc q 0.0
 6692         c3    224    ccc     C1   6692 0.50749700  12.010000   ; qtot 0.507374
 6693         h1    224    ccc     H1   6693 -0.02808400   1.008000   ; qtot 0.479290
 6694         h1    224    ccc     H2   6694 -0.02808400   1.008000   ; qtot 0.451206
 6695         c3    224    ccc     C2   6695 -0.15486000  12.010000   ; qtot 0.296346
 6696         hc    224    ccc     H3   6696 0.10266400   1.008000   ; qtot 0.399010
 6697         hc    224    ccc     H4   6697 0.10266400   1.008000   ; qtot 0.501674
 6698         c3    224    ccc     C3   6698 -0.15693500  12.010000   ; qtot 0.344739
 6699         h1    224    ccc     H5   6699 0.08499200   1.008000   ; qtot 0.429731
 6700         h1    224    ccc     H6   6700 0.08499200   1.008000   ; qtot 0.514723
 6701         n3    224    ccc     N1   6701 -0.29948700  14.010000   ; qtot 0.215236
 6702         c3    224    ccc     C4   6702 -0.01321200  12.010000   ; qtot 0.202024
 6703         h1    224    ccc     H7   6703 0.08172200   1.008000   ; qtot 0.283746
 6704         h1    224    ccc     H8   6704 0.08172200   1.008000   ; qtot 0.365468
 6705         c3    224    ccc     C5   6705 -0.22180000  12.010000   ; qtot 0.143668
 6706         hc    224    ccc     H9   6706 0.09671800   1.008000   ; qtot 0.240386
 6707         hc    224    ccc    H10   6707 0.09671800   1.008000   ; qtot 0.337104
 6708          c    224    ccc     C6   6708 0.526324  12.010000   ; qtot 1.333631
 6709          o    224    ccc     O1   6709 -0.39142825  16.000000   ; qtot 0.637125
 6710         oh    224    ccc     O2   6710 -0.56822625  16.000000   ; qtot -0.203686
 6711         ho    224    ccc    H11   6711 0.4186155   1.008000   ; qtot 0.322389
 6712         c3    224    ccc     C7   6712 -0.01321200  12.010000   ; qtot 0.309177
 6713         h1    224    ccc    H12   6713 0.08172200   1.008000   ; qtot 0.390899
 6714         h1    224    ccc    H13   6714 0.08172200   1.008000   ; qtot 0.472621
 6715         c3    224    ccc     C8   6715 -0.22180000  12.010000   ; qtot 0.250821
 6716         hc    224    ccc    H14   6716 0.09671800   1.008000   ; qtot 0.347539
 6717         hc    224    ccc    H15   6717 0.09671800   1.008000   ; qtot 0.444257
 6718          c    224    ccc     C9   6718 0.526324  12.010000   ; qtot 1.440784
 6719          o    224    ccc     O3   6719 -0.39142825  16.000000   ; qtot 0.744278
 6720         oh    224    ccc     O4   6720 -0.56822625  16.000000   ; qtot -0.096533
 6721         ho    224    ccc    H16   6721 0.4186155   1.008000   ; qtot 0.429542
 6722         os    224    ccc     O5   6722 -0.42966500  16.000000   ; qtot -0.000123
; residue  225 ccc rtp ccc q 0.0
 6723         c3    225    ccc     C1   6723 0.50749700  12.010000   ; qtot 0.507374
 6724         h1    225    ccc     H1   6724 -0.02808400   1.008000   ; qtot 0.479290
 6725         h1    225    ccc     H2   6725 -0.02808400   1.008000   ; qtot 0.451206
 6726         c3    225    ccc     C2   6726 -0.15486000  12.010000   ; qtot 0.296346
 6727         hc    225    ccc     H3   6727 0.10266400   1.008000   ; qtot 0.399010
 6728         hc    225    ccc     H4   6728 0.10266400   1.008000   ; qtot 0.501674
 6729         c3    225    ccc     C3   6729 -0.15693500  12.010000   ; qtot 0.344739
 6730         h1    225    ccc     H5   6730 0.08499200   1.008000   ; qtot 0.429731
 6731         h1    225    ccc     H6   6731 0.08499200   1.008000   ; qtot 0.514723
 6732         n3    225    ccc     N1   6732 -0.29948700  14.010000   ; qtot 0.215236
 6733         c3    225    ccc     C4   6733 -0.01321200  12.010000   ; qtot 0.202024
 6734         h1    225    ccc     H7   6734 0.08172200   1.008000   ; qtot 0.283746
 6735         h1    225    ccc     H8   6735 0.08172200   1.008000   ; qtot 0.365468
 6736         c3    225    ccc     C5   6736 -0.22180000  12.010000   ; qtot 0.143668
 6737         hc    225    ccc     H9   6737 0.09671800   1.008000   ; qtot 0.240386
 6738         hc    225    ccc    H10   6738 0.09671800   1.008000   ; qtot 0.337104
 6739          c    225    ccc     C6   6739 0.526324  12.010000   ; qtot 1.333631
 6740          o    225    ccc     O1   6740 -0.39142825  16.000000   ; qtot 0.637125
 6741         oh    225    ccc     O2   6741 -0.56822625  16.000000   ; qtot -0.203686
 6742         ho    225    ccc    H11   6742 0.4186155   1.008000   ; qtot 0.322389
 6743         c3    225    ccc     C7   6743 -0.01321200  12.010000   ; qtot 0.309177
 6744         h1    225    ccc    H12   6744 0.08172200   1.008000   ; qtot 0.390899
 6745         h1    225    ccc    H13   6745 0.08172200   1.008000   ; qtot 0.472621
 6746         c3    225    ccc     C8   6746 -0.22180000  12.010000   ; qtot 0.250821
 6747         hc    225    ccc    H14   6747 0.09671800   1.008000   ; qtot 0.347539
 6748         hc    225    ccc    H15   6748 0.09671800   1.008000   ; qtot 0.444257
 6749          c    225    ccc     C9   6749 0.526324  12.010000   ; qtot 1.440784
 6750          o    225    ccc     O3   6750 -0.39142825  16.000000   ; qtot 0.744278
 6751         oh    225    ccc     O4   6751 -0.56822625  16.000000   ; qtot -0.096533
 6752         ho    225    ccc    H16   6752 0.4186155   1.008000   ; qtot 0.429542
 6753         os    225    ccc     O5   6753 -0.42966500  16.000000   ; qtot -0.000123
; residue  226 ccc rtp ccc q 0.0
 6754         c3    226    ccc     C1   6754 0.50749700  12.010000   ; qtot 0.507374
 6755         h1    226    ccc     H1   6755 -0.02808400   1.008000   ; qtot 0.479290
 6756         h1    226    ccc     H2   6756 -0.02808400   1.008000   ; qtot 0.451206
 6757         c3    226    ccc     C2   6757 -0.15486000  12.010000   ; qtot 0.296346
 6758         hc    226    ccc     H3   6758 0.10266400   1.008000   ; qtot 0.399010
 6759         hc    226    ccc     H4   6759 0.10266400   1.008000   ; qtot 0.501674
 6760         c3    226    ccc     C3   6760 -0.15693500  12.010000   ; qtot 0.344739
 6761         h1    226    ccc     H5   6761 0.08499200   1.008000   ; qtot 0.429731
 6762         h1    226    ccc     H6   6762 0.08499200   1.008000   ; qtot 0.514723
 6763         n3    226    ccc     N1   6763 -0.29948700  14.010000   ; qtot 0.215236
 6764         c3    226    ccc     C4   6764 -0.01321200  12.010000   ; qtot 0.202024
 6765         h1    226    ccc     H7   6765 0.08172200   1.008000   ; qtot 0.283746
 6766         h1    226    ccc     H8   6766 0.08172200   1.008000   ; qtot 0.365468
 6767         c3    226    ccc     C5   6767 -0.22180000  12.010000   ; qtot 0.143668
 6768         hc    226    ccc     H9   6768 0.09671800   1.008000   ; qtot 0.240386
 6769         hc    226    ccc    H10   6769 0.09671800   1.008000   ; qtot 0.337104
 6770          c    226    ccc     C6   6770 0.526324  12.010000   ; qtot 1.333631
 6771          o    226    ccc     O1   6771 -0.39142825  16.000000   ; qtot 0.637125
 6772         oh    226    ccc     O2   6772 -0.56822625  16.000000   ; qtot -0.203686
 6773         ho    226    ccc    H11   6773 0.4186155   1.008000   ; qtot 0.322389
 6774         c3    226    ccc     C7   6774 -0.01321200  12.010000   ; qtot 0.309177
 6775         h1    226    ccc    H12   6775 0.08172200   1.008000   ; qtot 0.390899
 6776         h1    226    ccc    H13   6776 0.08172200   1.008000   ; qtot 0.472621
 6777         c3    226    ccc     C8   6777 -0.22180000  12.010000   ; qtot 0.250821
 6778         hc    226    ccc    H14   6778 0.09671800   1.008000   ; qtot 0.347539
 6779         hc    226    ccc    H15   6779 0.09671800   1.008000   ; qtot 0.444257
 6780          c    226    ccc     C9   6780 0.526324  12.010000   ; qtot 1.440784
 6781          o    226    ccc     O3   6781 -0.39142825  16.000000   ; qtot 0.744278
 6782         oh    226    ccc     O4   6782 -0.56822625  16.000000   ; qtot -0.096533
 6783         ho    226    ccc    H16   6783 0.4186155   1.008000   ; qtot 0.429542
 6784         os    226    ccc     O5   6784 -0.42966500  16.000000   ; qtot -0.000123
; residue  227 ccc rtp ccc q 0.0
 6785         c3    227    ccc     C1   6785 0.50749700  12.010000   ; qtot 0.507374
 6786         h1    227    ccc     H1   6786 -0.02808400   1.008000   ; qtot 0.479290
 6787         h1    227    ccc     H2   6787 -0.02808400   1.008000   ; qtot 0.451206
 6788         c3    227    ccc     C2   6788 -0.15486000  12.010000   ; qtot 0.296346
 6789         hc    227    ccc     H3   6789 0.10266400   1.008000   ; qtot 0.399010
 6790         hc    227    ccc     H4   6790 0.10266400   1.008000   ; qtot 0.501674
 6791         c3    227    ccc     C3   6791 -0.15693500  12.010000   ; qtot 0.344739
 6792         h1    227    ccc     H5   6792 0.08499200   1.008000   ; qtot 0.429731
 6793         h1    227    ccc     H6   6793 0.08499200   1.008000   ; qtot 0.514723
 6794         n3    227    ccc     N1   6794 -0.29948700  14.010000   ; qtot 0.215236
 6795         c3    227    ccc     C4   6795 -0.01321200  12.010000   ; qtot 0.202024
 6796         h1    227    ccc     H7   6796 0.08172200   1.008000   ; qtot 0.283746
 6797         h1    227    ccc     H8   6797 0.08172200   1.008000   ; qtot 0.365468
 6798         c3    227    ccc     C5   6798 -0.22180000  12.010000   ; qtot 0.143668
 6799         hc    227    ccc     H9   6799 0.09671800   1.008000   ; qtot 0.240386
 6800         hc    227    ccc    H10   6800 0.09671800   1.008000   ; qtot 0.337104
 6801          c    227    ccc     C6   6801 0.526324  12.010000   ; qtot 1.333631
 6802          o    227    ccc     O1   6802 -0.39142825  16.000000   ; qtot 0.637125
 6803         oh    227    ccc     O2   6803 -0.56822625  16.000000   ; qtot -0.203686
 6804         ho    227    ccc    H11   6804 0.4186155   1.008000   ; qtot 0.322389
 6805         c3    227    ccc     C7   6805 -0.01321200  12.010000   ; qtot 0.309177
 6806         h1    227    ccc    H12   6806 0.08172200   1.008000   ; qtot 0.390899
 6807         h1    227    ccc    H13   6807 0.08172200   1.008000   ; qtot 0.472621
 6808         c3    227    ccc     C8   6808 -0.22180000  12.010000   ; qtot 0.250821
 6809         hc    227    ccc    H14   6809 0.09671800   1.008000   ; qtot 0.347539
 6810         hc    227    ccc    H15   6810 0.09671800   1.008000   ; qtot 0.444257
 6811          c    227    ccc     C9   6811 0.526324  12.010000   ; qtot 1.440784
 6812          o    227    ccc     O3   6812 -0.39142825  16.000000   ; qtot 0.744278
 6813         oh    227    ccc     O4   6813 -0.56822625  16.000000   ; qtot -0.096533
 6814         ho    227    ccc    H16   6814 0.4186155   1.008000   ; qtot 0.429542
 6815         os    227    ccc     O5   6815 -0.42966500  16.000000   ; qtot -0.000123
; residue  228 ccc rtp ccc q 0.0
 6816         c3    228    ccc     C1   6816 0.50749700  12.010000   ; qtot 0.507374
 6817         h1    228    ccc     H1   6817 -0.02808400   1.008000   ; qtot 0.479290
 6818         h1    228    ccc     H2   6818 -0.02808400   1.008000   ; qtot 0.451206
 6819         c3    228    ccc     C2   6819 -0.15486000  12.010000   ; qtot 0.296346
 6820         hc    228    ccc     H3   6820 0.10266400   1.008000   ; qtot 0.399010
 6821         hc    228    ccc     H4   6821 0.10266400   1.008000   ; qtot 0.501674
 6822         c3    228    ccc     C3   6822 -0.15693500  12.010000   ; qtot 0.344739
 6823         h1    228    ccc     H5   6823 0.08499200   1.008000   ; qtot 0.429731
 6824         h1    228    ccc     H6   6824 0.08499200   1.008000   ; qtot 0.514723
 6825         n3    228    ccc     N1   6825 -0.29948700  14.010000   ; qtot 0.215236
 6826         c3    228    ccc     C4   6826 -0.01321200  12.010000   ; qtot 0.202024
 6827         h1    228    ccc     H7   6827 0.08172200   1.008000   ; qtot 0.283746
 6828         h1    228    ccc     H8   6828 0.08172200   1.008000   ; qtot 0.365468
 6829         c3    228    ccc     C5   6829 -0.22180000  12.010000   ; qtot 0.143668
 6830         hc    228    ccc     H9   6830 0.09671800   1.008000   ; qtot 0.240386
 6831         hc    228    ccc    H10   6831 0.09671800   1.008000   ; qtot 0.337104
 6832          c    228    ccc     C6   6832 0.526324  12.010000   ; qtot 1.333631
 6833          o    228    ccc     O1   6833 -0.39142825  16.000000   ; qtot 0.637125
 6834         oh    228    ccc     O2   6834 -0.56822625  16.000000   ; qtot -0.203686
 6835         ho    228    ccc    H11   6835 0.4186155   1.008000   ; qtot 0.322389
 6836         c3    228    ccc     C7   6836 -0.01321200  12.010000   ; qtot 0.309177
 6837         h1    228    ccc    H12   6837 0.08172200   1.008000   ; qtot 0.390899
 6838         h1    228    ccc    H13   6838 0.08172200   1.008000   ; qtot 0.472621
 6839         c3    228    ccc     C8   6839 -0.22180000  12.010000   ; qtot 0.250821
 6840         hc    228    ccc    H14   6840 0.09671800   1.008000   ; qtot 0.347539
 6841         hc    228    ccc    H15   6841 0.09671800   1.008000   ; qtot 0.444257
 6842          c    228    ccc     C9   6842 0.526324  12.010000   ; qtot 1.440784
 6843          o    228    ccc     O3   6843 -0.39142825  16.000000   ; qtot 0.744278
 6844         oh    228    ccc     O4   6844 -0.56822625  16.000000   ; qtot -0.096533
 6845         ho    228    ccc    H16   6845 0.4186155   1.008000   ; qtot 0.429542
 6846         os    228    ccc     O5   6846 -0.42966500  16.000000   ; qtot -0.000123
; residue  229 ccc rtp ccc q 0.0
 6847         c3    229    ccc     C1   6847 0.50749700  12.010000   ; qtot 0.507374
 6848         h1    229    ccc     H1   6848 -0.02808400   1.008000   ; qtot 0.479290
 6849         h1    229    ccc     H2   6849 -0.02808400   1.008000   ; qtot 0.451206
 6850         c3    229    ccc     C2   6850 -0.15486000  12.010000   ; qtot 0.296346
 6851         hc    229    ccc     H3   6851 0.10266400   1.008000   ; qtot 0.399010
 6852         hc    229    ccc     H4   6852 0.10266400   1.008000   ; qtot 0.501674
 6853         c3    229    ccc     C3   6853 -0.15693500  12.010000   ; qtot 0.344739
 6854         h1    229    ccc     H5   6854 0.08499200   1.008000   ; qtot 0.429731
 6855         h1    229    ccc     H6   6855 0.08499200   1.008000   ; qtot 0.514723
 6856         n3    229    ccc     N1   6856 -0.29948700  14.010000   ; qtot 0.215236
 6857         c3    229    ccc     C4   6857 -0.01321200  12.010000   ; qtot 0.202024
 6858         h1    229    ccc     H7   6858 0.08172200   1.008000   ; qtot 0.283746
 6859         h1    229    ccc     H8   6859 0.08172200   1.008000   ; qtot 0.365468
 6860         c3    229    ccc     C5   6860 -0.22180000  12.010000   ; qtot 0.143668
 6861         hc    229    ccc     H9   6861 0.09671800   1.008000   ; qtot 0.240386
 6862         hc    229    ccc    H10   6862 0.09671800   1.008000   ; qtot 0.337104
 6863          c    229    ccc     C6   6863 0.526324  12.010000   ; qtot 1.333631
 6864          o    229    ccc     O1   6864 -0.39142825  16.000000   ; qtot 0.637125
 6865         oh    229    ccc     O2   6865 -0.56822625  16.000000   ; qtot -0.203686
 6866         ho    229    ccc    H11   6866 0.4186155   1.008000   ; qtot 0.322389
 6867         c3    229    ccc     C7   6867 -0.01321200  12.010000   ; qtot 0.309177
 6868         h1    229    ccc    H12   6868 0.08172200   1.008000   ; qtot 0.390899
 6869         h1    229    ccc    H13   6869 0.08172200   1.008000   ; qtot 0.472621
 6870         c3    229    ccc     C8   6870 -0.22180000  12.010000   ; qtot 0.250821
 6871         hc    229    ccc    H14   6871 0.09671800   1.008000   ; qtot 0.347539
 6872         hc    229    ccc    H15   6872 0.09671800   1.008000   ; qtot 0.444257
 6873          c    229    ccc     C9   6873 0.526324  12.010000   ; qtot 1.440784
 6874          o    229    ccc     O3   6874 -0.39142825  16.000000   ; qtot 0.744278
 6875         oh    229    ccc     O4   6875 -0.56822625  16.000000   ; qtot -0.096533
 6876         ho    229    ccc    H16   6876 0.4186155   1.008000   ; qtot 0.429542
 6877         os    229    ccc     O5   6877 -0.42966500  16.000000   ; qtot -0.000123
; residue  230 ccc rtp ccc q 0.0
 6878         c3    230    ccc     C1   6878 0.50749700  12.010000   ; qtot 0.507374
 6879         h1    230    ccc     H1   6879 -0.02808400   1.008000   ; qtot 0.479290
 6880         h1    230    ccc     H2   6880 -0.02808400   1.008000   ; qtot 0.451206
 6881         c3    230    ccc     C2   6881 -0.15486000  12.010000   ; qtot 0.296346
 6882         hc    230    ccc     H3   6882 0.10266400   1.008000   ; qtot 0.399010
 6883         hc    230    ccc     H4   6883 0.10266400   1.008000   ; qtot 0.501674
 6884         c3    230    ccc     C3   6884 -0.15693500  12.010000   ; qtot 0.344739
 6885         h1    230    ccc     H5   6885 0.08499200   1.008000   ; qtot 0.429731
 6886         h1    230    ccc     H6   6886 0.08499200   1.008000   ; qtot 0.514723
 6887         n3    230    ccc     N1   6887 -0.29948700  14.010000   ; qtot 0.215236
 6888         c3    230    ccc     C4   6888 -0.01321200  12.010000   ; qtot 0.202024
 6889         h1    230    ccc     H7   6889 0.08172200   1.008000   ; qtot 0.283746
 6890         h1    230    ccc     H8   6890 0.08172200   1.008000   ; qtot 0.365468
 6891         c3    230    ccc     C5   6891 -0.22180000  12.010000   ; qtot 0.143668
 6892         hc    230    ccc     H9   6892 0.09671800   1.008000   ; qtot 0.240386
 6893         hc    230    ccc    H10   6893 0.09671800   1.008000   ; qtot 0.337104
 6894          c    230    ccc     C6   6894 0.526324  12.010000   ; qtot 1.333631
 6895          o    230    ccc     O1   6895 -0.39142825  16.000000   ; qtot 0.637125
 6896         oh    230    ccc     O2   6896 -0.56822625  16.000000   ; qtot -0.203686
 6897         ho    230    ccc    H11   6897 0.4186155   1.008000   ; qtot 0.322389
 6898         c3    230    ccc     C7   6898 -0.01321200  12.010000   ; qtot 0.309177
 6899         h1    230    ccc    H12   6899 0.08172200   1.008000   ; qtot 0.390899
 6900         h1    230    ccc    H13   6900 0.08172200   1.008000   ; qtot 0.472621
 6901         c3    230    ccc     C8   6901 -0.22180000  12.010000   ; qtot 0.250821
 6902         hc    230    ccc    H14   6902 0.09671800   1.008000   ; qtot 0.347539
 6903         hc    230    ccc    H15   6903 0.09671800   1.008000   ; qtot 0.444257
 6904          c    230    ccc     C9   6904 0.526324  12.010000   ; qtot 1.440784
 6905          o    230    ccc     O3   6905 -0.39142825  16.000000   ; qtot 0.744278
 6906         oh    230    ccc     O4   6906 -0.56822625  16.000000   ; qtot -0.096533
 6907         ho    230    ccc    H16   6907 0.4186155   1.008000   ; qtot 0.429542
 6908         os    230    ccc     O5   6908 -0.42966500  16.000000   ; qtot -0.000123
; residue  231 ccc rtp ccc q 0.0
 6909         c3    231    ccc     C1   6909 0.50749700  12.010000   ; qtot 0.507374
 6910         h1    231    ccc     H1   6910 -0.02808400   1.008000   ; qtot 0.479290
 6911         h1    231    ccc     H2   6911 -0.02808400   1.008000   ; qtot 0.451206
 6912         c3    231    ccc     C2   6912 -0.15486000  12.010000   ; qtot 0.296346
 6913         hc    231    ccc     H3   6913 0.10266400   1.008000   ; qtot 0.399010
 6914         hc    231    ccc     H4   6914 0.10266400   1.008000   ; qtot 0.501674
 6915         c3    231    ccc     C3   6915 -0.15693500  12.010000   ; qtot 0.344739
 6916         h1    231    ccc     H5   6916 0.08499200   1.008000   ; qtot 0.429731
 6917         h1    231    ccc     H6   6917 0.08499200   1.008000   ; qtot 0.514723
 6918         n3    231    ccc     N1   6918 -0.29948700  14.010000   ; qtot 0.215236
 6919         c3    231    ccc     C4   6919 -0.01321200  12.010000   ; qtot 0.202024
 6920         h1    231    ccc     H7   6920 0.08172200   1.008000   ; qtot 0.283746
 6921         h1    231    ccc     H8   6921 0.08172200   1.008000   ; qtot 0.365468
 6922         c3    231    ccc     C5   6922 -0.22180000  12.010000   ; qtot 0.143668
 6923         hc    231    ccc     H9   6923 0.09671800   1.008000   ; qtot 0.240386
 6924         hc    231    ccc    H10   6924 0.09671800   1.008000   ; qtot 0.337104
 6925          c    231    ccc     C6   6925 0.526324  12.010000   ; qtot 1.333631
 6926          o    231    ccc     O1   6926 -0.39142825  16.000000   ; qtot 0.637125
 6927         oh    231    ccc     O2   6927 -0.56822625  16.000000   ; qtot -0.203686
 6928         ho    231    ccc    H11   6928 0.4186155   1.008000   ; qtot 0.322389
 6929         c3    231    ccc     C7   6929 -0.01321200  12.010000   ; qtot 0.309177
 6930         h1    231    ccc    H12   6930 0.08172200   1.008000   ; qtot 0.390899
 6931         h1    231    ccc    H13   6931 0.08172200   1.008000   ; qtot 0.472621
 6932         c3    231    ccc     C8   6932 -0.22180000  12.010000   ; qtot 0.250821
 6933         hc    231    ccc    H14   6933 0.09671800   1.008000   ; qtot 0.347539
 6934         hc    231    ccc    H15   6934 0.09671800   1.008000   ; qtot 0.444257
 6935          c    231    ccc     C9   6935 0.526324  12.010000   ; qtot 1.440784
 6936          o    231    ccc     O3   6936 -0.39142825  16.000000   ; qtot 0.744278
 6937         oh    231    ccc     O4   6937 -0.56822625  16.000000   ; qtot -0.096533
 6938         ho    231    ccc    H16   6938 0.4186155   1.008000   ; qtot 0.429542
 6939         os    231    ccc     O5   6939 -0.42966500  16.000000   ; qtot -0.000123
; residue  232 ccc rtp ccc q 0.0
 6940         c3    232    ccc     C1   6940 0.50749700  12.010000   ; qtot 0.507374
 6941         h1    232    ccc     H1   6941 -0.02808400   1.008000   ; qtot 0.479290
 6942         h1    232    ccc     H2   6942 -0.02808400   1.008000   ; qtot 0.451206
 6943         c3    232    ccc     C2   6943 -0.15486000  12.010000   ; qtot 0.296346
 6944         hc    232    ccc     H3   6944 0.10266400   1.008000   ; qtot 0.399010
 6945         hc    232    ccc     H4   6945 0.10266400   1.008000   ; qtot 0.501674
 6946         c3    232    ccc     C3   6946 -0.15693500  12.010000   ; qtot 0.344739
 6947         h1    232    ccc     H5   6947 0.08499200   1.008000   ; qtot 0.429731
 6948         h1    232    ccc     H6   6948 0.08499200   1.008000   ; qtot 0.514723
 6949         n3    232    ccc     N1   6949 -0.29948700  14.010000   ; qtot 0.215236
 6950         c3    232    ccc     C4   6950 -0.01321200  12.010000   ; qtot 0.202024
 6951         h1    232    ccc     H7   6951 0.08172200   1.008000   ; qtot 0.283746
 6952         h1    232    ccc     H8   6952 0.08172200   1.008000   ; qtot 0.365468
 6953         c3    232    ccc     C5   6953 -0.22180000  12.010000   ; qtot 0.143668
 6954         hc    232    ccc     H9   6954 0.09671800   1.008000   ; qtot 0.240386
 6955         hc    232    ccc    H10   6955 0.09671800   1.008000   ; qtot 0.337104
 6956          c    232    ccc     C6   6956 0.526324  12.010000   ; qtot 1.333631
 6957          o    232    ccc     O1   6957 -0.39142825  16.000000   ; qtot 0.637125
 6958         oh    232    ccc     O2   6958 -0.56822625  16.000000   ; qtot -0.203686
 6959         ho    232    ccc    H11   6959 0.4186155   1.008000   ; qtot 0.322389
 6960         c3    232    ccc     C7   6960 -0.01321200  12.010000   ; qtot 0.309177
 6961         h1    232    ccc    H12   6961 0.08172200   1.008000   ; qtot 0.390899
 6962         h1    232    ccc    H13   6962 0.08172200   1.008000   ; qtot 0.472621
 6963         c3    232    ccc     C8   6963 -0.22180000  12.010000   ; qtot 0.250821
 6964         hc    232    ccc    H14   6964 0.09671800   1.008000   ; qtot 0.347539
 6965         hc    232    ccc    H15   6965 0.09671800   1.008000   ; qtot 0.444257
 6966          c    232    ccc     C9   6966 0.526324  12.010000   ; qtot 1.440784
 6967          o    232    ccc     O3   6967 -0.39142825  16.000000   ; qtot 0.744278
 6968         oh    232    ccc     O4   6968 -0.56822625  16.000000   ; qtot -0.096533
 6969         ho    232    ccc    H16   6969 0.4186155   1.008000   ; qtot 0.429542
 6970         os    232    ccc     O5   6970 -0.42966500  16.000000   ; qtot -0.000123
; residue  233 ccc rtp ccc q 0.0
 6971         c3    233    ccc     C1   6971 0.50749700  12.010000   ; qtot 0.507374
 6972         h1    233    ccc     H1   6972 -0.02808400   1.008000   ; qtot 0.479290
 6973         h1    233    ccc     H2   6973 -0.02808400   1.008000   ; qtot 0.451206
 6974         c3    233    ccc     C2   6974 -0.15486000  12.010000   ; qtot 0.296346
 6975         hc    233    ccc     H3   6975 0.10266400   1.008000   ; qtot 0.399010
 6976         hc    233    ccc     H4   6976 0.10266400   1.008000   ; qtot 0.501674
 6977         c3    233    ccc     C3   6977 -0.15693500  12.010000   ; qtot 0.344739
 6978         h1    233    ccc     H5   6978 0.08499200   1.008000   ; qtot 0.429731
 6979         h1    233    ccc     H6   6979 0.08499200   1.008000   ; qtot 0.514723
 6980         n3    233    ccc     N1   6980 -0.29948700  14.010000   ; qtot 0.215236
 6981         c3    233    ccc     C4   6981 -0.01321200  12.010000   ; qtot 0.202024
 6982         h1    233    ccc     H7   6982 0.08172200   1.008000   ; qtot 0.283746
 6983         h1    233    ccc     H8   6983 0.08172200   1.008000   ; qtot 0.365468
 6984         c3    233    ccc     C5   6984 -0.22180000  12.010000   ; qtot 0.143668
 6985         hc    233    ccc     H9   6985 0.09671800   1.008000   ; qtot 0.240386
 6986         hc    233    ccc    H10   6986 0.09671800   1.008000   ; qtot 0.337104
 6987          c    233    ccc     C6   6987 0.526324  12.010000   ; qtot 1.333631
 6988          o    233    ccc     O1   6988 -0.39142825  16.000000   ; qtot 0.637125
 6989         oh    233    ccc     O2   6989 -0.56822625  16.000000   ; qtot -0.203686
 6990         ho    233    ccc    H11   6990 0.4186155   1.008000   ; qtot 0.322389
 6991         c3    233    ccc     C7   6991 -0.01321200  12.010000   ; qtot 0.309177
 6992         h1    233    ccc    H12   6992 0.08172200   1.008000   ; qtot 0.390899
 6993         h1    233    ccc    H13   6993 0.08172200   1.008000   ; qtot 0.472621
 6994         c3    233    ccc     C8   6994 -0.22180000  12.010000   ; qtot 0.250821
 6995         hc    233    ccc    H14   6995 0.09671800   1.008000   ; qtot 0.347539
 6996         hc    233    ccc    H15   6996 0.09671800   1.008000   ; qtot 0.444257
 6997          c    233    ccc     C9   6997 0.526324  12.010000   ; qtot 1.440784
 6998          o    233    ccc     O3   6998 -0.39142825  16.000000   ; qtot 0.744278
 6999         oh    233    ccc     O4   6999 -0.56822625  16.000000   ; qtot -0.096533
 7000         ho    233    ccc    H16   7000 0.4186155   1.008000   ; qtot 0.429542
 7001         os    233    ccc     O5   7001 -0.42966500  16.000000   ; qtot -0.000123
; residue  234 ccc rtp ccc q 0.0
 7002         c3    234    ccc     C1   7002 0.50749700  12.010000   ; qtot 0.507374
 7003         h1    234    ccc     H1   7003 -0.02808400   1.008000   ; qtot 0.479290
 7004         h1    234    ccc     H2   7004 -0.02808400   1.008000   ; qtot 0.451206
 7005         c3    234    ccc     C2   7005 -0.15486000  12.010000   ; qtot 0.296346
 7006         hc    234    ccc     H3   7006 0.10266400   1.008000   ; qtot 0.399010
 7007         hc    234    ccc     H4   7007 0.10266400   1.008000   ; qtot 0.501674
 7008         c3    234    ccc     C3   7008 -0.15693500  12.010000   ; qtot 0.344739
 7009         h1    234    ccc     H5   7009 0.08499200   1.008000   ; qtot 0.429731
 7010         h1    234    ccc     H6   7010 0.08499200   1.008000   ; qtot 0.514723
 7011         n3    234    ccc     N1   7011 -0.29948700  14.010000   ; qtot 0.215236
 7012         c3    234    ccc     C4   7012 -0.01321200  12.010000   ; qtot 0.202024
 7013         h1    234    ccc     H7   7013 0.08172200   1.008000   ; qtot 0.283746
 7014         h1    234    ccc     H8   7014 0.08172200   1.008000   ; qtot 0.365468
 7015         c3    234    ccc     C5   7015 -0.22180000  12.010000   ; qtot 0.143668
 7016         hc    234    ccc     H9   7016 0.09671800   1.008000   ; qtot 0.240386
 7017         hc    234    ccc    H10   7017 0.09671800   1.008000   ; qtot 0.337104
 7018          c    234    ccc     C6   7018 0.526324  12.010000   ; qtot 1.333631
 7019          o    234    ccc     O1   7019 -0.39142825  16.000000   ; qtot 0.637125
 7020         oh    234    ccc     O2   7020 -0.56822625  16.000000   ; qtot -0.203686
 7021         ho    234    ccc    H11   7021 0.4186155   1.008000   ; qtot 0.322389
 7022         c3    234    ccc     C7   7022 -0.01321200  12.010000   ; qtot 0.309177
 7023         h1    234    ccc    H12   7023 0.08172200   1.008000   ; qtot 0.390899
 7024         h1    234    ccc    H13   7024 0.08172200   1.008000   ; qtot 0.472621
 7025         c3    234    ccc     C8   7025 -0.22180000  12.010000   ; qtot 0.250821
 7026         hc    234    ccc    H14   7026 0.09671800   1.008000   ; qtot 0.347539
 7027         hc    234    ccc    H15   7027 0.09671800   1.008000   ; qtot 0.444257
 7028          c    234    ccc     C9   7028 0.526324  12.010000   ; qtot 1.440784
 7029          o    234    ccc     O3   7029 -0.39142825  16.000000   ; qtot 0.744278
 7030         oh    234    ccc     O4   7030 -0.56822625  16.000000   ; qtot -0.096533
 7031         ho    234    ccc    H16   7031 0.4186155   1.008000   ; qtot 0.429542
 7032         os    234    ccc     O5   7032 -0.42966500  16.000000   ; qtot -0.000123
; residue  235 ccc rtp ccc q 0.0
 7033         c3    235    ccc     C1   7033 0.50749700  12.010000   ; qtot 0.507374
 7034         h1    235    ccc     H1   7034 -0.02808400   1.008000   ; qtot 0.479290
 7035         h1    235    ccc     H2   7035 -0.02808400   1.008000   ; qtot 0.451206
 7036         c3    235    ccc     C2   7036 -0.15486000  12.010000   ; qtot 0.296346
 7037         hc    235    ccc     H3   7037 0.10266400   1.008000   ; qtot 0.399010
 7038         hc    235    ccc     H4   7038 0.10266400   1.008000   ; qtot 0.501674
 7039         c3    235    ccc     C3   7039 -0.15693500  12.010000   ; qtot 0.344739
 7040         h1    235    ccc     H5   7040 0.08499200   1.008000   ; qtot 0.429731
 7041         h1    235    ccc     H6   7041 0.08499200   1.008000   ; qtot 0.514723
 7042         n3    235    ccc     N1   7042 -0.29948700  14.010000   ; qtot 0.215236
 7043         c3    235    ccc     C4   7043 -0.01321200  12.010000   ; qtot 0.202024
 7044         h1    235    ccc     H7   7044 0.08172200   1.008000   ; qtot 0.283746
 7045         h1    235    ccc     H8   7045 0.08172200   1.008000   ; qtot 0.365468
 7046         c3    235    ccc     C5   7046 -0.22180000  12.010000   ; qtot 0.143668
 7047         hc    235    ccc     H9   7047 0.09671800   1.008000   ; qtot 0.240386
 7048         hc    235    ccc    H10   7048 0.09671800   1.008000   ; qtot 0.337104
 7049          c    235    ccc     C6   7049 0.526324  12.010000   ; qtot 1.333631
 7050          o    235    ccc     O1   7050 -0.39142825  16.000000   ; qtot 0.637125
 7051         oh    235    ccc     O2   7051 -0.56822625  16.000000   ; qtot -0.203686
 7052         ho    235    ccc    H11   7052 0.4186155   1.008000   ; qtot 0.322389
 7053         c3    235    ccc     C7   7053 -0.01321200  12.010000   ; qtot 0.309177
 7054         h1    235    ccc    H12   7054 0.08172200   1.008000   ; qtot 0.390899
 7055         h1    235    ccc    H13   7055 0.08172200   1.008000   ; qtot 0.472621
 7056         c3    235    ccc     C8   7056 -0.22180000  12.010000   ; qtot 0.250821
 7057         hc    235    ccc    H14   7057 0.09671800   1.008000   ; qtot 0.347539
 7058         hc    235    ccc    H15   7058 0.09671800   1.008000   ; qtot 0.444257
 7059          c    235    ccc     C9   7059 0.526324  12.010000   ; qtot 1.440784
 7060          o    235    ccc     O3   7060 -0.39142825  16.000000   ; qtot 0.744278
 7061         oh    235    ccc     O4   7061 -0.56822625  16.000000   ; qtot -0.096533
 7062         ho    235    ccc    H16   7062 0.4186155   1.008000   ; qtot 0.429542
 7063         os    235    ccc     O5   7063 -0.42966500  16.000000   ; qtot -0.000123
; residue  236 ccc rtp ccc q 0.0
 7064         c3    236    ccc     C1   7064 0.50749700  12.010000   ; qtot 0.507374
 7065         h1    236    ccc     H1   7065 -0.02808400   1.008000   ; qtot 0.479290
 7066         h1    236    ccc     H2   7066 -0.02808400   1.008000   ; qtot 0.451206
 7067         c3    236    ccc     C2   7067 -0.15486000  12.010000   ; qtot 0.296346
 7068         hc    236    ccc     H3   7068 0.10266400   1.008000   ; qtot 0.399010
 7069         hc    236    ccc     H4   7069 0.10266400   1.008000   ; qtot 0.501674
 7070         c3    236    ccc     C3   7070 -0.15693500  12.010000   ; qtot 0.344739
 7071         h1    236    ccc     H5   7071 0.08499200   1.008000   ; qtot 0.429731
 7072         h1    236    ccc     H6   7072 0.08499200   1.008000   ; qtot 0.514723
 7073         n3    236    ccc     N1   7073 -0.29948700  14.010000   ; qtot 0.215236
 7074         c3    236    ccc     C4   7074 -0.01321200  12.010000   ; qtot 0.202024
 7075         h1    236    ccc     H7   7075 0.08172200   1.008000   ; qtot 0.283746
 7076         h1    236    ccc     H8   7076 0.08172200   1.008000   ; qtot 0.365468
 7077         c3    236    ccc     C5   7077 -0.22180000  12.010000   ; qtot 0.143668
 7078         hc    236    ccc     H9   7078 0.09671800   1.008000   ; qtot 0.240386
 7079         hc    236    ccc    H10   7079 0.09671800   1.008000   ; qtot 0.337104
 7080          c    236    ccc     C6   7080 0.526324  12.010000   ; qtot 1.333631
 7081          o    236    ccc     O1   7081 -0.39142825  16.000000   ; qtot 0.637125
 7082         oh    236    ccc     O2   7082 -0.56822625  16.000000   ; qtot -0.203686
 7083         ho    236    ccc    H11   7083 0.4186155   1.008000   ; qtot 0.322389
 7084         c3    236    ccc     C7   7084 -0.01321200  12.010000   ; qtot 0.309177
 7085         h1    236    ccc    H12   7085 0.08172200   1.008000   ; qtot 0.390899
 7086         h1    236    ccc    H13   7086 0.08172200   1.008000   ; qtot 0.472621
 7087         c3    236    ccc     C8   7087 -0.22180000  12.010000   ; qtot 0.250821
 7088         hc    236    ccc    H14   7088 0.09671800   1.008000   ; qtot 0.347539
 7089         hc    236    ccc    H15   7089 0.09671800   1.008000   ; qtot 0.444257
 7090          c    236    ccc     C9   7090 0.526324  12.010000   ; qtot 1.440784
 7091          o    236    ccc     O3   7091 -0.39142825  16.000000   ; qtot 0.744278
 7092         oh    236    ccc     O4   7092 -0.56822625  16.000000   ; qtot -0.096533
 7093         ho    236    ccc    H16   7093 0.4186155   1.008000   ; qtot 0.429542
 7094         os    236    ccc     O5   7094 -0.42966500  16.000000   ; qtot -0.000123
; residue  237 ccc rtp ccc q 0.0
 7095         c3    237    ccc     C1   7095 0.50749700  12.010000   ; qtot 0.507374
 7096         h1    237    ccc     H1   7096 -0.02808400   1.008000   ; qtot 0.479290
 7097         h1    237    ccc     H2   7097 -0.02808400   1.008000   ; qtot 0.451206
 7098         c3    237    ccc     C2   7098 -0.15486000  12.010000   ; qtot 0.296346
 7099         hc    237    ccc     H3   7099 0.10266400   1.008000   ; qtot 0.399010
 7100         hc    237    ccc     H4   7100 0.10266400   1.008000   ; qtot 0.501674
 7101         c3    237    ccc     C3   7101 -0.15693500  12.010000   ; qtot 0.344739
 7102         h1    237    ccc     H5   7102 0.08499200   1.008000   ; qtot 0.429731
 7103         h1    237    ccc     H6   7103 0.08499200   1.008000   ; qtot 0.514723
 7104         n3    237    ccc     N1   7104 -0.29948700  14.010000   ; qtot 0.215236
 7105         c3    237    ccc     C4   7105 -0.01321200  12.010000   ; qtot 0.202024
 7106         h1    237    ccc     H7   7106 0.08172200   1.008000   ; qtot 0.283746
 7107         h1    237    ccc     H8   7107 0.08172200   1.008000   ; qtot 0.365468
 7108         c3    237    ccc     C5   7108 -0.22180000  12.010000   ; qtot 0.143668
 7109         hc    237    ccc     H9   7109 0.09671800   1.008000   ; qtot 0.240386
 7110         hc    237    ccc    H10   7110 0.09671800   1.008000   ; qtot 0.337104
 7111          c    237    ccc     C6   7111 0.526324  12.010000   ; qtot 1.333631
 7112          o    237    ccc     O1   7112 -0.39142825  16.000000   ; qtot 0.637125
 7113         oh    237    ccc     O2   7113 -0.56822625  16.000000   ; qtot -0.203686
 7114         ho    237    ccc    H11   7114 0.4186155   1.008000   ; qtot 0.322389
 7115         c3    237    ccc     C7   7115 -0.01321200  12.010000   ; qtot 0.309177
 7116         h1    237    ccc    H12   7116 0.08172200   1.008000   ; qtot 0.390899
 7117         h1    237    ccc    H13   7117 0.08172200   1.008000   ; qtot 0.472621
 7118         c3    237    ccc     C8   7118 -0.22180000  12.010000   ; qtot 0.250821
 7119         hc    237    ccc    H14   7119 0.09671800   1.008000   ; qtot 0.347539
 7120         hc    237    ccc    H15   7120 0.09671800   1.008000   ; qtot 0.444257
 7121          c    237    ccc     C9   7121 0.526324  12.010000   ; qtot 1.440784
 7122          o    237    ccc     O3   7122 -0.39142825  16.000000   ; qtot 0.744278
 7123         oh    237    ccc     O4   7123 -0.56822625  16.000000   ; qtot -0.096533
 7124         ho    237    ccc    H16   7124 0.4186155   1.008000   ; qtot 0.429542
 7125         os    237    ccc     O5   7125 -0.42966500  16.000000   ; qtot -0.000123
; residue  238 ccc rtp ccc q 0.0
 7126         c3    238    ccc     C1   7126 0.50749700  12.010000   ; qtot 0.507374
 7127         h1    238    ccc     H1   7127 -0.02808400   1.008000   ; qtot 0.479290
 7128         h1    238    ccc     H2   7128 -0.02808400   1.008000   ; qtot 0.451206
 7129         c3    238    ccc     C2   7129 -0.15486000  12.010000   ; qtot 0.296346
 7130         hc    238    ccc     H3   7130 0.10266400   1.008000   ; qtot 0.399010
 7131         hc    238    ccc     H4   7131 0.10266400   1.008000   ; qtot 0.501674
 7132         c3    238    ccc     C3   7132 -0.15693500  12.010000   ; qtot 0.344739
 7133         h1    238    ccc     H5   7133 0.08499200   1.008000   ; qtot 0.429731
 7134         h1    238    ccc     H6   7134 0.08499200   1.008000   ; qtot 0.514723
 7135         n3    238    ccc     N1   7135 -0.29948700  14.010000   ; qtot 0.215236
 7136         c3    238    ccc     C4   7136 -0.01321200  12.010000   ; qtot 0.202024
 7137         h1    238    ccc     H7   7137 0.08172200   1.008000   ; qtot 0.283746
 7138         h1    238    ccc     H8   7138 0.08172200   1.008000   ; qtot 0.365468
 7139         c3    238    ccc     C5   7139 -0.22180000  12.010000   ; qtot 0.143668
 7140         hc    238    ccc     H9   7140 0.09671800   1.008000   ; qtot 0.240386
 7141         hc    238    ccc    H10   7141 0.09671800   1.008000   ; qtot 0.337104
 7142          c    238    ccc     C6   7142 0.526324  12.010000   ; qtot 1.333631
 7143          o    238    ccc     O1   7143 -0.39142825  16.000000   ; qtot 0.637125
 7144         oh    238    ccc     O2   7144 -0.56822625  16.000000   ; qtot -0.203686
 7145         ho    238    ccc    H11   7145 0.4186155   1.008000   ; qtot 0.322389
 7146         c3    238    ccc     C7   7146 -0.01321200  12.010000   ; qtot 0.309177
 7147         h1    238    ccc    H12   7147 0.08172200   1.008000   ; qtot 0.390899
 7148         h1    238    ccc    H13   7148 0.08172200   1.008000   ; qtot 0.472621
 7149         c3    238    ccc     C8   7149 -0.22180000  12.010000   ; qtot 0.250821
 7150         hc    238    ccc    H14   7150 0.09671800   1.008000   ; qtot 0.347539
 7151         hc    238    ccc    H15   7151 0.09671800   1.008000   ; qtot 0.444257
 7152          c    238    ccc     C9   7152 0.526324  12.010000   ; qtot 1.440784
 7153          o    238    ccc     O3   7153 -0.39142825  16.000000   ; qtot 0.744278
 7154         oh    238    ccc     O4   7154 -0.56822625  16.000000   ; qtot -0.096533
 7155         ho    238    ccc    H16   7155 0.4186155   1.008000   ; qtot 0.429542
 7156         os    238    ccc     O5   7156 -0.42966500  16.000000   ; qtot -0.000123
; residue  239 ccc rtp ccc q 0.0
 7157         c3    239    ccc     C1   7157 0.50749700  12.010000   ; qtot 0.507374
 7158         h1    239    ccc     H1   7158 -0.02808400   1.008000   ; qtot 0.479290
 7159         h1    239    ccc     H2   7159 -0.02808400   1.008000   ; qtot 0.451206
 7160         c3    239    ccc     C2   7160 -0.15486000  12.010000   ; qtot 0.296346
 7161         hc    239    ccc     H3   7161 0.10266400   1.008000   ; qtot 0.399010
 7162         hc    239    ccc     H4   7162 0.10266400   1.008000   ; qtot 0.501674
 7163         c3    239    ccc     C3   7163 -0.15693500  12.010000   ; qtot 0.344739
 7164         h1    239    ccc     H5   7164 0.08499200   1.008000   ; qtot 0.429731
 7165         h1    239    ccc     H6   7165 0.08499200   1.008000   ; qtot 0.514723
 7166         n3    239    ccc     N1   7166 -0.29948700  14.010000   ; qtot 0.215236
 7167         c3    239    ccc     C4   7167 -0.01321200  12.010000   ; qtot 0.202024
 7168         h1    239    ccc     H7   7168 0.08172200   1.008000   ; qtot 0.283746
 7169         h1    239    ccc     H8   7169 0.08172200   1.008000   ; qtot 0.365468
 7170         c3    239    ccc     C5   7170 -0.22180000  12.010000   ; qtot 0.143668
 7171         hc    239    ccc     H9   7171 0.09671800   1.008000   ; qtot 0.240386
 7172         hc    239    ccc    H10   7172 0.09671800   1.008000   ; qtot 0.337104
 7173          c    239    ccc     C6   7173 0.526324  12.010000   ; qtot 1.333631
 7174          o    239    ccc     O1   7174 -0.39142825  16.000000   ; qtot 0.637125
 7175         oh    239    ccc     O2   7175 -0.56822625  16.000000   ; qtot -0.203686
 7176         ho    239    ccc    H11   7176 0.4186155   1.008000   ; qtot 0.322389
 7177         c3    239    ccc     C7   7177 -0.01321200  12.010000   ; qtot 0.309177
 7178         h1    239    ccc    H12   7178 0.08172200   1.008000   ; qtot 0.390899
 7179         h1    239    ccc    H13   7179 0.08172200   1.008000   ; qtot 0.472621
 7180         c3    239    ccc     C8   7180 -0.22180000  12.010000   ; qtot 0.250821
 7181         hc    239    ccc    H14   7181 0.09671800   1.008000   ; qtot 0.347539
 7182         hc    239    ccc    H15   7182 0.09671800   1.008000   ; qtot 0.444257
 7183          c    239    ccc     C9   7183 0.526324  12.010000   ; qtot 1.440784
 7184          o    239    ccc     O3   7184 -0.39142825  16.000000   ; qtot 0.744278
 7185         oh    239    ccc     O4   7185 -0.56822625  16.000000   ; qtot -0.096533
 7186         ho    239    ccc    H16   7186 0.4186155   1.008000   ; qtot 0.429542
 7187         os    239    ccc     O5   7187 -0.42966500  16.000000   ; qtot -0.000123
; residue  240 ccc rtp ccc q 0.0
 7188         c3    240    ccc     C1   7188 0.50749700  12.010000   ; qtot 0.507374
 7189         h1    240    ccc     H1   7189 -0.02808400   1.008000   ; qtot 0.479290
 7190         h1    240    ccc     H2   7190 -0.02808400   1.008000   ; qtot 0.451206
 7191         c3    240    ccc     C2   7191 -0.15486000  12.010000   ; qtot 0.296346
 7192         hc    240    ccc     H3   7192 0.10266400   1.008000   ; qtot 0.399010
 7193         hc    240    ccc     H4   7193 0.10266400   1.008000   ; qtot 0.501674
 7194         c3    240    ccc     C3   7194 -0.15693500  12.010000   ; qtot 0.344739
 7195         h1    240    ccc     H5   7195 0.08499200   1.008000   ; qtot 0.429731
 7196         h1    240    ccc     H6   7196 0.08499200   1.008000   ; qtot 0.514723
 7197         n3    240    ccc     N1   7197 -0.29948700  14.010000   ; qtot 0.215236
 7198         c3    240    ccc     C4   7198 -0.01321200  12.010000   ; qtot 0.202024
 7199         h1    240    ccc     H7   7199 0.08172200   1.008000   ; qtot 0.283746
 7200         h1    240    ccc     H8   7200 0.08172200   1.008000   ; qtot 0.365468
 7201         c3    240    ccc     C5   7201 -0.22180000  12.010000   ; qtot 0.143668
 7202         hc    240    ccc     H9   7202 0.09671800   1.008000   ; qtot 0.240386
 7203         hc    240    ccc    H10   7203 0.09671800   1.008000   ; qtot 0.337104
 7204          c    240    ccc     C6   7204 0.526324  12.010000   ; qtot 1.333631
 7205          o    240    ccc     O1   7205 -0.39142825  16.000000   ; qtot 0.637125
 7206         oh    240    ccc     O2   7206 -0.56822625  16.000000   ; qtot -0.203686
 7207         ho    240    ccc    H11   7207 0.4186155   1.008000   ; qtot 0.322389
 7208         c3    240    ccc     C7   7208 -0.01321200  12.010000   ; qtot 0.309177
 7209         h1    240    ccc    H12   7209 0.08172200   1.008000   ; qtot 0.390899
 7210         h1    240    ccc    H13   7210 0.08172200   1.008000   ; qtot 0.472621
 7211         c3    240    ccc     C8   7211 -0.22180000  12.010000   ; qtot 0.250821
 7212         hc    240    ccc    H14   7212 0.09671800   1.008000   ; qtot 0.347539
 7213         hc    240    ccc    H15   7213 0.09671800   1.008000   ; qtot 0.444257
 7214          c    240    ccc     C9   7214 0.526324  12.010000   ; qtot 1.440784
 7215          o    240    ccc     O3   7215 -0.39142825  16.000000   ; qtot 0.744278
 7216         oh    240    ccc     O4   7216 -0.56822625  16.000000   ; qtot -0.096533
 7217         ho    240    ccc    H16   7217 0.4186155   1.008000   ; qtot 0.429542
 7218         os    240    ccc     O5   7218 -0.42966500  16.000000   ; qtot -0.000123
; residue  241 ccc rtp ccc q 0.0
 7219         c3    241    ccc     C1   7219 0.50749700  12.010000   ; qtot 0.507374
 7220         h1    241    ccc     H1   7220 -0.02808400   1.008000   ; qtot 0.479290
 7221         h1    241    ccc     H2   7221 -0.02808400   1.008000   ; qtot 0.451206
 7222         c3    241    ccc     C2   7222 -0.15486000  12.010000   ; qtot 0.296346
 7223         hc    241    ccc     H3   7223 0.10266400   1.008000   ; qtot 0.399010
 7224         hc    241    ccc     H4   7224 0.10266400   1.008000   ; qtot 0.501674
 7225         c3    241    ccc     C3   7225 -0.15693500  12.010000   ; qtot 0.344739
 7226         h1    241    ccc     H5   7226 0.08499200   1.008000   ; qtot 0.429731
 7227         h1    241    ccc     H6   7227 0.08499200   1.008000   ; qtot 0.514723
 7228         n3    241    ccc     N1   7228 -0.29948700  14.010000   ; qtot 0.215236
 7229         c3    241    ccc     C4   7229 -0.01321200  12.010000   ; qtot 0.202024
 7230         h1    241    ccc     H7   7230 0.08172200   1.008000   ; qtot 0.283746
 7231         h1    241    ccc     H8   7231 0.08172200   1.008000   ; qtot 0.365468
 7232         c3    241    ccc     C5   7232 -0.22180000  12.010000   ; qtot 0.143668
 7233         hc    241    ccc     H9   7233 0.09671800   1.008000   ; qtot 0.240386
 7234         hc    241    ccc    H10   7234 0.09671800   1.008000   ; qtot 0.337104
 7235          c    241    ccc     C6   7235 0.526324  12.010000   ; qtot 1.333631
 7236          o    241    ccc     O1   7236 -0.39142825  16.000000   ; qtot 0.637125
 7237         oh    241    ccc     O2   7237 -0.56822625  16.000000   ; qtot -0.203686
 7238         ho    241    ccc    H11   7238 0.4186155   1.008000   ; qtot 0.322389
 7239         c3    241    ccc     C7   7239 -0.01321200  12.010000   ; qtot 0.309177
 7240         h1    241    ccc    H12   7240 0.08172200   1.008000   ; qtot 0.390899
 7241         h1    241    ccc    H13   7241 0.08172200   1.008000   ; qtot 0.472621
 7242         c3    241    ccc     C8   7242 -0.22180000  12.010000   ; qtot 0.250821
 7243         hc    241    ccc    H14   7243 0.09671800   1.008000   ; qtot 0.347539
 7244         hc    241    ccc    H15   7244 0.09671800   1.008000   ; qtot 0.444257
 7245          c    241    ccc     C9   7245 0.526324  12.010000   ; qtot 1.440784
 7246          o    241    ccc     O3   7246 -0.39142825  16.000000   ; qtot 0.744278
 7247         oh    241    ccc     O4   7247 -0.56822625  16.000000   ; qtot -0.096533
 7248         ho    241    ccc    H16   7248 0.4186155   1.008000   ; qtot 0.429542
 7249         os    241    ccc     O5   7249 -0.42966500  16.000000   ; qtot -0.000123
; residue  242 ccc rtp ccc q 0.0
 7250         c3    242    ccc     C1   7250 0.50749700  12.010000   ; qtot 0.507374
 7251         h1    242    ccc     H1   7251 -0.02808400   1.008000   ; qtot 0.479290
 7252         h1    242    ccc     H2   7252 -0.02808400   1.008000   ; qtot 0.451206
 7253         c3    242    ccc     C2   7253 -0.15486000  12.010000   ; qtot 0.296346
 7254         hc    242    ccc     H3   7254 0.10266400   1.008000   ; qtot 0.399010
 7255         hc    242    ccc     H4   7255 0.10266400   1.008000   ; qtot 0.501674
 7256         c3    242    ccc     C3   7256 -0.15693500  12.010000   ; qtot 0.344739
 7257         h1    242    ccc     H5   7257 0.08499200   1.008000   ; qtot 0.429731
 7258         h1    242    ccc     H6   7258 0.08499200   1.008000   ; qtot 0.514723
 7259         n3    242    ccc     N1   7259 -0.29948700  14.010000   ; qtot 0.215236
 7260         c3    242    ccc     C4   7260 -0.01321200  12.010000   ; qtot 0.202024
 7261         h1    242    ccc     H7   7261 0.08172200   1.008000   ; qtot 0.283746
 7262         h1    242    ccc     H8   7262 0.08172200   1.008000   ; qtot 0.365468
 7263         c3    242    ccc     C5   7263 -0.22180000  12.010000   ; qtot 0.143668
 7264         hc    242    ccc     H9   7264 0.09671800   1.008000   ; qtot 0.240386
 7265         hc    242    ccc    H10   7265 0.09671800   1.008000   ; qtot 0.337104
 7266          c    242    ccc     C6   7266 0.526324  12.010000   ; qtot 1.333631
 7267          o    242    ccc     O1   7267 -0.39142825  16.000000   ; qtot 0.637125
 7268         oh    242    ccc     O2   7268 -0.56822625  16.000000   ; qtot -0.203686
 7269         ho    242    ccc    H11   7269 0.4186155   1.008000   ; qtot 0.322389
 7270         c3    242    ccc     C7   7270 -0.01321200  12.010000   ; qtot 0.309177
 7271         h1    242    ccc    H12   7271 0.08172200   1.008000   ; qtot 0.390899
 7272         h1    242    ccc    H13   7272 0.08172200   1.008000   ; qtot 0.472621
 7273         c3    242    ccc     C8   7273 -0.22180000  12.010000   ; qtot 0.250821
 7274         hc    242    ccc    H14   7274 0.09671800   1.008000   ; qtot 0.347539
 7275         hc    242    ccc    H15   7275 0.09671800   1.008000   ; qtot 0.444257
 7276          c    242    ccc     C9   7276 0.526324  12.010000   ; qtot 1.440784
 7277          o    242    ccc     O3   7277 -0.39142825  16.000000   ; qtot 0.744278
 7278         oh    242    ccc     O4   7278 -0.56822625  16.000000   ; qtot -0.096533
 7279         ho    242    ccc    H16   7279 0.4186155   1.008000   ; qtot 0.429542
 7280         os    242    ccc     O5   7280 -0.42966500  16.000000   ; qtot -0.000123
; residue  243 ccc rtp ccc q 0.0
 7281         c3    243    ccc     C1   7281 0.50749700  12.010000   ; qtot 0.507374
 7282         h1    243    ccc     H1   7282 -0.02808400   1.008000   ; qtot 0.479290
 7283         h1    243    ccc     H2   7283 -0.02808400   1.008000   ; qtot 0.451206
 7284         c3    243    ccc     C2   7284 -0.15486000  12.010000   ; qtot 0.296346
 7285         hc    243    ccc     H3   7285 0.10266400   1.008000   ; qtot 0.399010
 7286         hc    243    ccc     H4   7286 0.10266400   1.008000   ; qtot 0.501674
 7287         c3    243    ccc     C3   7287 -0.15693500  12.010000   ; qtot 0.344739
 7288         h1    243    ccc     H5   7288 0.08499200   1.008000   ; qtot 0.429731
 7289         h1    243    ccc     H6   7289 0.08499200   1.008000   ; qtot 0.514723
 7290         n3    243    ccc     N1   7290 -0.29948700  14.010000   ; qtot 0.215236
 7291         c3    243    ccc     C4   7291 -0.01321200  12.010000   ; qtot 0.202024
 7292         h1    243    ccc     H7   7292 0.08172200   1.008000   ; qtot 0.283746
 7293         h1    243    ccc     H8   7293 0.08172200   1.008000   ; qtot 0.365468
 7294         c3    243    ccc     C5   7294 -0.22180000  12.010000   ; qtot 0.143668
 7295         hc    243    ccc     H9   7295 0.09671800   1.008000   ; qtot 0.240386
 7296         hc    243    ccc    H10   7296 0.09671800   1.008000   ; qtot 0.337104
 7297          c    243    ccc     C6   7297 0.526324  12.010000   ; qtot 1.333631
 7298          o    243    ccc     O1   7298 -0.39142825  16.000000   ; qtot 0.637125
 7299         oh    243    ccc     O2   7299 -0.56822625  16.000000   ; qtot -0.203686
 7300         ho    243    ccc    H11   7300 0.4186155   1.008000   ; qtot 0.322389
 7301         c3    243    ccc     C7   7301 -0.01321200  12.010000   ; qtot 0.309177
 7302         h1    243    ccc    H12   7302 0.08172200   1.008000   ; qtot 0.390899
 7303         h1    243    ccc    H13   7303 0.08172200   1.008000   ; qtot 0.472621
 7304         c3    243    ccc     C8   7304 -0.22180000  12.010000   ; qtot 0.250821
 7305         hc    243    ccc    H14   7305 0.09671800   1.008000   ; qtot 0.347539
 7306         hc    243    ccc    H15   7306 0.09671800   1.008000   ; qtot 0.444257
 7307          c    243    ccc     C9   7307 0.526324  12.010000   ; qtot 1.440784
 7308          o    243    ccc     O3   7308 -0.39142825  16.000000   ; qtot 0.744278
 7309         oh    243    ccc     O4   7309 -0.56822625  16.000000   ; qtot -0.096533
 7310         ho    243    ccc    H16   7310 0.4186155   1.008000   ; qtot 0.429542
 7311         os    243    ccc     O5   7311 -0.42966500  16.000000   ; qtot -0.000123
; residue  244 ccc rtp ccc q 0.0
 7312         c3    244    ccc     C1   7312 0.50749700  12.010000   ; qtot 0.507374
 7313         h1    244    ccc     H1   7313 -0.02808400   1.008000   ; qtot 0.479290
 7314         h1    244    ccc     H2   7314 -0.02808400   1.008000   ; qtot 0.451206
 7315         c3    244    ccc     C2   7315 -0.15486000  12.010000   ; qtot 0.296346
 7316         hc    244    ccc     H3   7316 0.10266400   1.008000   ; qtot 0.399010
 7317         hc    244    ccc     H4   7317 0.10266400   1.008000   ; qtot 0.501674
 7318         c3    244    ccc     C3   7318 -0.15693500  12.010000   ; qtot 0.344739
 7319         h1    244    ccc     H5   7319 0.08499200   1.008000   ; qtot 0.429731
 7320         h1    244    ccc     H6   7320 0.08499200   1.008000   ; qtot 0.514723
 7321         n3    244    ccc     N1   7321 -0.29948700  14.010000   ; qtot 0.215236
 7322         c3    244    ccc     C4   7322 -0.01321200  12.010000   ; qtot 0.202024
 7323         h1    244    ccc     H7   7323 0.08172200   1.008000   ; qtot 0.283746
 7324         h1    244    ccc     H8   7324 0.08172200   1.008000   ; qtot 0.365468
 7325         c3    244    ccc     C5   7325 -0.22180000  12.010000   ; qtot 0.143668
 7326         hc    244    ccc     H9   7326 0.09671800   1.008000   ; qtot 0.240386
 7327         hc    244    ccc    H10   7327 0.09671800   1.008000   ; qtot 0.337104
 7328          c    244    ccc     C6   7328 0.526324  12.010000   ; qtot 1.333631
 7329          o    244    ccc     O1   7329 -0.39142825  16.000000   ; qtot 0.637125
 7330         oh    244    ccc     O2   7330 -0.56822625  16.000000   ; qtot -0.203686
 7331         ho    244    ccc    H11   7331 0.4186155   1.008000   ; qtot 0.322389
 7332         c3    244    ccc     C7   7332 -0.01321200  12.010000   ; qtot 0.309177
 7333         h1    244    ccc    H12   7333 0.08172200   1.008000   ; qtot 0.390899
 7334         h1    244    ccc    H13   7334 0.08172200   1.008000   ; qtot 0.472621
 7335         c3    244    ccc     C8   7335 -0.22180000  12.010000   ; qtot 0.250821
 7336         hc    244    ccc    H14   7336 0.09671800   1.008000   ; qtot 0.347539
 7337         hc    244    ccc    H15   7337 0.09671800   1.008000   ; qtot 0.444257
 7338          c    244    ccc     C9   7338 0.526324  12.010000   ; qtot 1.440784
 7339          o    244    ccc     O3   7339 -0.39142825  16.000000   ; qtot 0.744278
 7340         oh    244    ccc     O4   7340 -0.56822625  16.000000   ; qtot -0.096533
 7341         ho    244    ccc    H16   7341 0.4186155   1.008000   ; qtot 0.429542
 7342         os    244    ccc     O5   7342 -0.42966500  16.000000   ; qtot -0.000123
; residue  245 ccc rtp ccc q 0.0
 7343         c3    245    ccc     C1   7343 0.50749700  12.010000   ; qtot 0.507374
 7344         h1    245    ccc     H1   7344 -0.02808400   1.008000   ; qtot 0.479290
 7345         h1    245    ccc     H2   7345 -0.02808400   1.008000   ; qtot 0.451206
 7346         c3    245    ccc     C2   7346 -0.15486000  12.010000   ; qtot 0.296346
 7347         hc    245    ccc     H3   7347 0.10266400   1.008000   ; qtot 0.399010
 7348         hc    245    ccc     H4   7348 0.10266400   1.008000   ; qtot 0.501674
 7349         c3    245    ccc     C3   7349 -0.15693500  12.010000   ; qtot 0.344739
 7350         h1    245    ccc     H5   7350 0.08499200   1.008000   ; qtot 0.429731
 7351         h1    245    ccc     H6   7351 0.08499200   1.008000   ; qtot 0.514723
 7352         n3    245    ccc     N1   7352 -0.29948700  14.010000   ; qtot 0.215236
 7353         c3    245    ccc     C4   7353 -0.01321200  12.010000   ; qtot 0.202024
 7354         h1    245    ccc     H7   7354 0.08172200   1.008000   ; qtot 0.283746
 7355         h1    245    ccc     H8   7355 0.08172200   1.008000   ; qtot 0.365468
 7356         c3    245    ccc     C5   7356 -0.22180000  12.010000   ; qtot 0.143668
 7357         hc    245    ccc     H9   7357 0.09671800   1.008000   ; qtot 0.240386
 7358         hc    245    ccc    H10   7358 0.09671800   1.008000   ; qtot 0.337104
 7359          c    245    ccc     C6   7359 0.526324  12.010000   ; qtot 1.333631
 7360          o    245    ccc     O1   7360 -0.39142825  16.000000   ; qtot 0.637125
 7361         oh    245    ccc     O2   7361 -0.56822625  16.000000   ; qtot -0.203686
 7362         ho    245    ccc    H11   7362 0.4186155   1.008000   ; qtot 0.322389
 7363         c3    245    ccc     C7   7363 -0.01321200  12.010000   ; qtot 0.309177
 7364         h1    245    ccc    H12   7364 0.08172200   1.008000   ; qtot 0.390899
 7365         h1    245    ccc    H13   7365 0.08172200   1.008000   ; qtot 0.472621
 7366         c3    245    ccc     C8   7366 -0.22180000  12.010000   ; qtot 0.250821
 7367         hc    245    ccc    H14   7367 0.09671800   1.008000   ; qtot 0.347539
 7368         hc    245    ccc    H15   7368 0.09671800   1.008000   ; qtot 0.444257
 7369          c    245    ccc     C9   7369 0.526324  12.010000   ; qtot 1.440784
 7370          o    245    ccc     O3   7370 -0.39142825  16.000000   ; qtot 0.744278
 7371         oh    245    ccc     O4   7371 -0.56822625  16.000000   ; qtot -0.096533
 7372         ho    245    ccc    H16   7372 0.4186155   1.008000   ; qtot 0.429542
 7373         os    245    ccc     O5   7373 -0.42966500  16.000000   ; qtot -0.000123
; residue  246 ccc rtp ccc q 0.0
 7374         c3    246    ccc     C1   7374 0.50749700  12.010000   ; qtot 0.507374
 7375         h1    246    ccc     H1   7375 -0.02808400   1.008000   ; qtot 0.479290
 7376         h1    246    ccc     H2   7376 -0.02808400   1.008000   ; qtot 0.451206
 7377         c3    246    ccc     C2   7377 -0.15486000  12.010000   ; qtot 0.296346
 7378         hc    246    ccc     H3   7378 0.10266400   1.008000   ; qtot 0.399010
 7379         hc    246    ccc     H4   7379 0.10266400   1.008000   ; qtot 0.501674
 7380         c3    246    ccc     C3   7380 -0.15693500  12.010000   ; qtot 0.344739
 7381         h1    246    ccc     H5   7381 0.08499200   1.008000   ; qtot 0.429731
 7382         h1    246    ccc     H6   7382 0.08499200   1.008000   ; qtot 0.514723
 7383         n3    246    ccc     N1   7383 -0.29948700  14.010000   ; qtot 0.215236
 7384         c3    246    ccc     C4   7384 -0.01321200  12.010000   ; qtot 0.202024
 7385         h1    246    ccc     H7   7385 0.08172200   1.008000   ; qtot 0.283746
 7386         h1    246    ccc     H8   7386 0.08172200   1.008000   ; qtot 0.365468
 7387         c3    246    ccc     C5   7387 -0.22180000  12.010000   ; qtot 0.143668
 7388         hc    246    ccc     H9   7388 0.09671800   1.008000   ; qtot 0.240386
 7389         hc    246    ccc    H10   7389 0.09671800   1.008000   ; qtot 0.337104
 7390          c    246    ccc     C6   7390 0.526324  12.010000   ; qtot 1.333631
 7391          o    246    ccc     O1   7391 -0.39142825  16.000000   ; qtot 0.637125
 7392         oh    246    ccc     O2   7392 -0.56822625  16.000000   ; qtot -0.203686
 7393         ho    246    ccc    H11   7393 0.4186155   1.008000   ; qtot 0.322389
 7394         c3    246    ccc     C7   7394 -0.01321200  12.010000   ; qtot 0.309177
 7395         h1    246    ccc    H12   7395 0.08172200   1.008000   ; qtot 0.390899
 7396         h1    246    ccc    H13   7396 0.08172200   1.008000   ; qtot 0.472621
 7397         c3    246    ccc     C8   7397 -0.22180000  12.010000   ; qtot 0.250821
 7398         hc    246    ccc    H14   7398 0.09671800   1.008000   ; qtot 0.347539
 7399         hc    246    ccc    H15   7399 0.09671800   1.008000   ; qtot 0.444257
 7400          c    246    ccc     C9   7400 0.526324  12.010000   ; qtot 1.440784
 7401          o    246    ccc     O3   7401 -0.39142825  16.000000   ; qtot 0.744278
 7402         oh    246    ccc     O4   7402 -0.56822625  16.000000   ; qtot -0.096533
 7403         ho    246    ccc    H16   7403 0.4186155   1.008000   ; qtot 0.429542
 7404         os    246    ccc     O5   7404 -0.42966500  16.000000   ; qtot -0.000123
; residue  247 ccc rtp ccc q 0.0
 7405         c3    247    ccc     C1   7405 0.50749700  12.010000   ; qtot 0.507374
 7406         h1    247    ccc     H1   7406 -0.02808400   1.008000   ; qtot 0.479290
 7407         h1    247    ccc     H2   7407 -0.02808400   1.008000   ; qtot 0.451206
 7408         c3    247    ccc     C2   7408 -0.15486000  12.010000   ; qtot 0.296346
 7409         hc    247    ccc     H3   7409 0.10266400   1.008000   ; qtot 0.399010
 7410         hc    247    ccc     H4   7410 0.10266400   1.008000   ; qtot 0.501674
 7411         c3    247    ccc     C3   7411 -0.15693500  12.010000   ; qtot 0.344739
 7412         h1    247    ccc     H5   7412 0.08499200   1.008000   ; qtot 0.429731
 7413         h1    247    ccc     H6   7413 0.08499200   1.008000   ; qtot 0.514723
 7414         n3    247    ccc     N1   7414 -0.29948700  14.010000   ; qtot 0.215236
 7415         c3    247    ccc     C4   7415 -0.01321200  12.010000   ; qtot 0.202024
 7416         h1    247    ccc     H7   7416 0.08172200   1.008000   ; qtot 0.283746
 7417         h1    247    ccc     H8   7417 0.08172200   1.008000   ; qtot 0.365468
 7418         c3    247    ccc     C5   7418 -0.22180000  12.010000   ; qtot 0.143668
 7419         hc    247    ccc     H9   7419 0.09671800   1.008000   ; qtot 0.240386
 7420         hc    247    ccc    H10   7420 0.09671800   1.008000   ; qtot 0.337104
 7421          c    247    ccc     C6   7421 0.526324  12.010000   ; qtot 1.333631
 7422          o    247    ccc     O1   7422 -0.39142825  16.000000   ; qtot 0.637125
 7423         oh    247    ccc     O2   7423 -0.56822625  16.000000   ; qtot -0.203686
 7424         ho    247    ccc    H11   7424 0.4186155   1.008000   ; qtot 0.322389
 7425         c3    247    ccc     C7   7425 -0.01321200  12.010000   ; qtot 0.309177
 7426         h1    247    ccc    H12   7426 0.08172200   1.008000   ; qtot 0.390899
 7427         h1    247    ccc    H13   7427 0.08172200   1.008000   ; qtot 0.472621
 7428         c3    247    ccc     C8   7428 -0.22180000  12.010000   ; qtot 0.250821
 7429         hc    247    ccc    H14   7429 0.09671800   1.008000   ; qtot 0.347539
 7430         hc    247    ccc    H15   7430 0.09671800   1.008000   ; qtot 0.444257
 7431          c    247    ccc     C9   7431 0.526324  12.010000   ; qtot 1.440784
 7432          o    247    ccc     O3   7432 -0.39142825  16.000000   ; qtot 0.744278
 7433         oh    247    ccc     O4   7433 -0.56822625  16.000000   ; qtot -0.096533
 7434         ho    247    ccc    H16   7434 0.4186155   1.008000   ; qtot 0.429542
 7435         os    247    ccc     O5   7435 -0.42966500  16.000000   ; qtot -0.000123
; residue  248 ccc rtp ccc q 0.0
 7436         c3    248    ccc     C1   7436 0.50749700  12.010000   ; qtot 0.507374
 7437         h1    248    ccc     H1   7437 -0.02808400   1.008000   ; qtot 0.479290
 7438         h1    248    ccc     H2   7438 -0.02808400   1.008000   ; qtot 0.451206
 7439         c3    248    ccc     C2   7439 -0.15486000  12.010000   ; qtot 0.296346
 7440         hc    248    ccc     H3   7440 0.10266400   1.008000   ; qtot 0.399010
 7441         hc    248    ccc     H4   7441 0.10266400   1.008000   ; qtot 0.501674
 7442         c3    248    ccc     C3   7442 -0.15693500  12.010000   ; qtot 0.344739
 7443         h1    248    ccc     H5   7443 0.08499200   1.008000   ; qtot 0.429731
 7444         h1    248    ccc     H6   7444 0.08499200   1.008000   ; qtot 0.514723
 7445         n3    248    ccc     N1   7445 -0.29948700  14.010000   ; qtot 0.215236
 7446         c3    248    ccc     C4   7446 -0.01321200  12.010000   ; qtot 0.202024
 7447         h1    248    ccc     H7   7447 0.08172200   1.008000   ; qtot 0.283746
 7448         h1    248    ccc     H8   7448 0.08172200   1.008000   ; qtot 0.365468
 7449         c3    248    ccc     C5   7449 -0.22180000  12.010000   ; qtot 0.143668
 7450         hc    248    ccc     H9   7450 0.09671800   1.008000   ; qtot 0.240386
 7451         hc    248    ccc    H10   7451 0.09671800   1.008000   ; qtot 0.337104
 7452          c    248    ccc     C6   7452 0.526324  12.010000   ; qtot 1.333631
 7453          o    248    ccc     O1   7453 -0.39142825  16.000000   ; qtot 0.637125
 7454         oh    248    ccc     O2   7454 -0.56822625  16.000000   ; qtot -0.203686
 7455         ho    248    ccc    H11   7455 0.4186155   1.008000   ; qtot 0.322389
 7456         c3    248    ccc     C7   7456 -0.01321200  12.010000   ; qtot 0.309177
 7457         h1    248    ccc    H12   7457 0.08172200   1.008000   ; qtot 0.390899
 7458         h1    248    ccc    H13   7458 0.08172200   1.008000   ; qtot 0.472621
 7459         c3    248    ccc     C8   7459 -0.22180000  12.010000   ; qtot 0.250821
 7460         hc    248    ccc    H14   7460 0.09671800   1.008000   ; qtot 0.347539
 7461         hc    248    ccc    H15   7461 0.09671800   1.008000   ; qtot 0.444257
 7462          c    248    ccc     C9   7462 0.526324  12.010000   ; qtot 1.440784
 7463          o    248    ccc     O3   7463 -0.39142825  16.000000   ; qtot 0.744278
 7464         oh    248    ccc     O4   7464 -0.56822625  16.000000   ; qtot -0.096533
 7465         ho    248    ccc    H16   7465 0.4186155   1.008000   ; qtot 0.429542
 7466         os    248    ccc     O5   7466 -0.42966500  16.000000   ; qtot -0.000123
; residue  249 ccc rtp ccc q 0.0
 7467         c3    249    ccc     C1   7467 0.50749700  12.010000   ; qtot 0.507374
 7468         h1    249    ccc     H1   7468 -0.02808400   1.008000   ; qtot 0.479290
 7469         h1    249    ccc     H2   7469 -0.02808400   1.008000   ; qtot 0.451206
 7470         c3    249    ccc     C2   7470 -0.15486000  12.010000   ; qtot 0.296346
 7471         hc    249    ccc     H3   7471 0.10266400   1.008000   ; qtot 0.399010
 7472         hc    249    ccc     H4   7472 0.10266400   1.008000   ; qtot 0.501674
 7473         c3    249    ccc     C3   7473 -0.15693500  12.010000   ; qtot 0.344739
 7474         h1    249    ccc     H5   7474 0.08499200   1.008000   ; qtot 0.429731
 7475         h1    249    ccc     H6   7475 0.08499200   1.008000   ; qtot 0.514723
 7476         n3    249    ccc     N1   7476 -0.29948700  14.010000   ; qtot 0.215236
 7477         c3    249    ccc     C4   7477 -0.01321200  12.010000   ; qtot 0.202024
 7478         h1    249    ccc     H7   7478 0.08172200   1.008000   ; qtot 0.283746
 7479         h1    249    ccc     H8   7479 0.08172200   1.008000   ; qtot 0.365468
 7480         c3    249    ccc     C5   7480 -0.22180000  12.010000   ; qtot 0.143668
 7481         hc    249    ccc     H9   7481 0.09671800   1.008000   ; qtot 0.240386
 7482         hc    249    ccc    H10   7482 0.09671800   1.008000   ; qtot 0.337104
 7483          c    249    ccc     C6   7483 0.526324  12.010000   ; qtot 1.333631
 7484          o    249    ccc     O1   7484 -0.39142825  16.000000   ; qtot 0.637125
 7485         oh    249    ccc     O2   7485 -0.56822625  16.000000   ; qtot -0.203686
 7486         ho    249    ccc    H11   7486 0.4186155   1.008000   ; qtot 0.322389
 7487         c3    249    ccc     C7   7487 -0.01321200  12.010000   ; qtot 0.309177
 7488         h1    249    ccc    H12   7488 0.08172200   1.008000   ; qtot 0.390899
 7489         h1    249    ccc    H13   7489 0.08172200   1.008000   ; qtot 0.472621
 7490         c3    249    ccc     C8   7490 -0.22180000  12.010000   ; qtot 0.250821
 7491         hc    249    ccc    H14   7491 0.09671800   1.008000   ; qtot 0.347539
 7492         hc    249    ccc    H15   7492 0.09671800   1.008000   ; qtot 0.444257
 7493          c    249    ccc     C9   7493 0.526324  12.010000   ; qtot 1.440784
 7494          o    249    ccc     O3   7494 -0.39142825  16.000000   ; qtot 0.744278
 7495         oh    249    ccc     O4   7495 -0.56822625  16.000000   ; qtot -0.096533
 7496         ho    249    ccc    H16   7496 0.4186155   1.008000   ; qtot 0.429542
 7497         os    249    ccc     O5   7497 -0.42966500  16.000000   ; qtot -0.000123
; residue  250 ccc rtp ccc q 0.0
 7498         c3    250    ccc     C1   7498 0.50749700  12.010000   ; qtot 0.507374
 7499         h1    250    ccc     H1   7499 -0.02808400   1.008000   ; qtot 0.479290
 7500         h1    250    ccc     H2   7500 -0.02808400   1.008000   ; qtot 0.451206
 7501         c3    250    ccc     C2   7501 -0.15486000  12.010000   ; qtot 0.296346
 7502         hc    250    ccc     H3   7502 0.10266400   1.008000   ; qtot 0.399010
 7503         hc    250    ccc     H4   7503 0.10266400   1.008000   ; qtot 0.501674
 7504         c3    250    ccc     C3   7504 -0.15693500  12.010000   ; qtot 0.344739
 7505         h1    250    ccc     H5   7505 0.08499200   1.008000   ; qtot 0.429731
 7506         h1    250    ccc     H6   7506 0.08499200   1.008000   ; qtot 0.514723
 7507         n3    250    ccc     N1   7507 -0.29948700  14.010000   ; qtot 0.215236
 7508         c3    250    ccc     C4   7508 -0.01321200  12.010000   ; qtot 0.202024
 7509         h1    250    ccc     H7   7509 0.08172200   1.008000   ; qtot 0.283746
 7510         h1    250    ccc     H8   7510 0.08172200   1.008000   ; qtot 0.365468
 7511         c3    250    ccc     C5   7511 -0.22180000  12.010000   ; qtot 0.143668
 7512         hc    250    ccc     H9   7512 0.09671800   1.008000   ; qtot 0.240386
 7513         hc    250    ccc    H10   7513 0.09671800   1.008000   ; qtot 0.337104
 7514          c    250    ccc     C6   7514 0.526324  12.010000   ; qtot 1.333631
 7515          o    250    ccc     O1   7515 -0.39142825  16.000000   ; qtot 0.637125
 7516         oh    250    ccc     O2   7516 -0.56822625  16.000000   ; qtot -0.203686
 7517         ho    250    ccc    H11   7517 0.4186155   1.008000   ; qtot 0.322389
 7518         c3    250    ccc     C7   7518 -0.01321200  12.010000   ; qtot 0.309177
 7519         h1    250    ccc    H12   7519 0.08172200   1.008000   ; qtot 0.390899
 7520         h1    250    ccc    H13   7520 0.08172200   1.008000   ; qtot 0.472621
 7521         c3    250    ccc     C8   7521 -0.22180000  12.010000   ; qtot 0.250821
 7522         hc    250    ccc    H14   7522 0.09671800   1.008000   ; qtot 0.347539
 7523         hc    250    ccc    H15   7523 0.09671800   1.008000   ; qtot 0.444257
 7524          c    250    ccc     C9   7524 0.526324  12.010000   ; qtot 1.440784
 7525          o    250    ccc     O3   7525 -0.39142825  16.000000   ; qtot 0.744278
 7526         oh    250    ccc     O4   7526 -0.56822625  16.000000   ; qtot -0.096533
 7527         ho    250    ccc    H16   7527 0.4186155   1.008000   ; qtot 0.429542
 7528         os    250    ccc     O5   7528 -0.42966500  16.000000   ; qtot -0.000123
; residue  251 ccc rtp ccc q 0.0
 7529         c3    251    ccc     C1   7529 0.50749700  12.010000   ; qtot 0.507374
 7530         h1    251    ccc     H1   7530 -0.02808400   1.008000   ; qtot 0.479290
 7531         h1    251    ccc     H2   7531 -0.02808400   1.008000   ; qtot 0.451206
 7532         c3    251    ccc     C2   7532 -0.15486000  12.010000   ; qtot 0.296346
 7533         hc    251    ccc     H3   7533 0.10266400   1.008000   ; qtot 0.399010
 7534         hc    251    ccc     H4   7534 0.10266400   1.008000   ; qtot 0.501674
 7535         c3    251    ccc     C3   7535 -0.15693500  12.010000   ; qtot 0.344739
 7536         h1    251    ccc     H5   7536 0.08499200   1.008000   ; qtot 0.429731
 7537         h1    251    ccc     H6   7537 0.08499200   1.008000   ; qtot 0.514723
 7538         n3    251    ccc     N1   7538 -0.29948700  14.010000   ; qtot 0.215236
 7539         c3    251    ccc     C4   7539 -0.01321200  12.010000   ; qtot 0.202024
 7540         h1    251    ccc     H7   7540 0.08172200   1.008000   ; qtot 0.283746
 7541         h1    251    ccc     H8   7541 0.08172200   1.008000   ; qtot 0.365468
 7542         c3    251    ccc     C5   7542 -0.22180000  12.010000   ; qtot 0.143668
 7543         hc    251    ccc     H9   7543 0.09671800   1.008000   ; qtot 0.240386
 7544         hc    251    ccc    H10   7544 0.09671800   1.008000   ; qtot 0.337104
 7545          c    251    ccc     C6   7545 0.526324  12.010000   ; qtot 1.333631
 7546          o    251    ccc     O1   7546 -0.39142825  16.000000   ; qtot 0.637125
 7547         oh    251    ccc     O2   7547 -0.56822625  16.000000   ; qtot -0.203686
 7548         ho    251    ccc    H11   7548 0.4186155   1.008000   ; qtot 0.322389
 7549         c3    251    ccc     C7   7549 -0.01321200  12.010000   ; qtot 0.309177
 7550         h1    251    ccc    H12   7550 0.08172200   1.008000   ; qtot 0.390899
 7551         h1    251    ccc    H13   7551 0.08172200   1.008000   ; qtot 0.472621
 7552         c3    251    ccc     C8   7552 -0.22180000  12.010000   ; qtot 0.250821
 7553         hc    251    ccc    H14   7553 0.09671800   1.008000   ; qtot 0.347539
 7554         hc    251    ccc    H15   7554 0.09671800   1.008000   ; qtot 0.444257
 7555          c    251    ccc     C9   7555 0.526324  12.010000   ; qtot 1.440784
 7556          o    251    ccc     O3   7556 -0.39142825  16.000000   ; qtot 0.744278
 7557         oh    251    ccc     O4   7557 -0.56822625  16.000000   ; qtot -0.096533
 7558         ho    251    ccc    H16   7558 0.4186155   1.008000   ; qtot 0.429542
 7559         os    251    ccc     O5   7559 -0.42966500  16.000000   ; qtot -0.000123
; residue  252 ccc rtp ccc q 0.0
 7560         c3    252    ccc     C1   7560 0.50749700  12.010000   ; qtot 0.507374
 7561         h1    252    ccc     H1   7561 -0.02808400   1.008000   ; qtot 0.479290
 7562         h1    252    ccc     H2   7562 -0.02808400   1.008000   ; qtot 0.451206
 7563         c3    252    ccc     C2   7563 -0.15486000  12.010000   ; qtot 0.296346
 7564         hc    252    ccc     H3   7564 0.10266400   1.008000   ; qtot 0.399010
 7565         hc    252    ccc     H4   7565 0.10266400   1.008000   ; qtot 0.501674
 7566         c3    252    ccc     C3   7566 -0.15693500  12.010000   ; qtot 0.344739
 7567         h1    252    ccc     H5   7567 0.08499200   1.008000   ; qtot 0.429731
 7568         h1    252    ccc     H6   7568 0.08499200   1.008000   ; qtot 0.514723
 7569         n3    252    ccc     N1   7569 -0.29948700  14.010000   ; qtot 0.215236
 7570         c3    252    ccc     C4   7570 -0.01321200  12.010000   ; qtot 0.202024
 7571         h1    252    ccc     H7   7571 0.08172200   1.008000   ; qtot 0.283746
 7572         h1    252    ccc     H8   7572 0.08172200   1.008000   ; qtot 0.365468
 7573         c3    252    ccc     C5   7573 -0.22180000  12.010000   ; qtot 0.143668
 7574         hc    252    ccc     H9   7574 0.09671800   1.008000   ; qtot 0.240386
 7575         hc    252    ccc    H10   7575 0.09671800   1.008000   ; qtot 0.337104
 7576          c    252    ccc     C6   7576 0.526324  12.010000   ; qtot 1.333631
 7577          o    252    ccc     O1   7577 -0.39142825  16.000000   ; qtot 0.637125
 7578         oh    252    ccc     O2   7578 -0.56822625  16.000000   ; qtot -0.203686
 7579         ho    252    ccc    H11   7579 0.4186155   1.008000   ; qtot 0.322389
 7580         c3    252    ccc     C7   7580 -0.01321200  12.010000   ; qtot 0.309177
 7581         h1    252    ccc    H12   7581 0.08172200   1.008000   ; qtot 0.390899
 7582         h1    252    ccc    H13   7582 0.08172200   1.008000   ; qtot 0.472621
 7583         c3    252    ccc     C8   7583 -0.22180000  12.010000   ; qtot 0.250821
 7584         hc    252    ccc    H14   7584 0.09671800   1.008000   ; qtot 0.347539
 7585         hc    252    ccc    H15   7585 0.09671800   1.008000   ; qtot 0.444257
 7586          c    252    ccc     C9   7586 0.526324  12.010000   ; qtot 1.440784
 7587          o    252    ccc     O3   7587 -0.39142825  16.000000   ; qtot 0.744278
 7588         oh    252    ccc     O4   7588 -0.56822625  16.000000   ; qtot -0.096533
 7589         ho    252    ccc    H16   7589 0.4186155   1.008000   ; qtot 0.429542
 7590         os    252    ccc     O5   7590 -0.42966500  16.000000   ; qtot -0.000123
; residue  253 ccc rtp ccc q 0.0
 7591         c3    253    ccc     C1   7591 0.50749700  12.010000   ; qtot 0.507374
 7592         h1    253    ccc     H1   7592 -0.02808400   1.008000   ; qtot 0.479290
 7593         h1    253    ccc     H2   7593 -0.02808400   1.008000   ; qtot 0.451206
 7594         c3    253    ccc     C2   7594 -0.15486000  12.010000   ; qtot 0.296346
 7595         hc    253    ccc     H3   7595 0.10266400   1.008000   ; qtot 0.399010
 7596         hc    253    ccc     H4   7596 0.10266400   1.008000   ; qtot 0.501674
 7597         c3    253    ccc     C3   7597 -0.15693500  12.010000   ; qtot 0.344739
 7598         h1    253    ccc     H5   7598 0.08499200   1.008000   ; qtot 0.429731
 7599         h1    253    ccc     H6   7599 0.08499200   1.008000   ; qtot 0.514723
 7600         n3    253    ccc     N1   7600 -0.29948700  14.010000   ; qtot 0.215236
 7601         c3    253    ccc     C4   7601 -0.01321200  12.010000   ; qtot 0.202024
 7602         h1    253    ccc     H7   7602 0.08172200   1.008000   ; qtot 0.283746
 7603         h1    253    ccc     H8   7603 0.08172200   1.008000   ; qtot 0.365468
 7604         c3    253    ccc     C5   7604 -0.22180000  12.010000   ; qtot 0.143668
 7605         hc    253    ccc     H9   7605 0.09671800   1.008000   ; qtot 0.240386
 7606         hc    253    ccc    H10   7606 0.09671800   1.008000   ; qtot 0.337104
 7607          c    253    ccc     C6   7607 0.526324  12.010000   ; qtot 1.333631
 7608          o    253    ccc     O1   7608 -0.39142825  16.000000   ; qtot 0.637125
 7609         oh    253    ccc     O2   7609 -0.56822625  16.000000   ; qtot -0.203686
 7610         ho    253    ccc    H11   7610 0.4186155   1.008000   ; qtot 0.322389
 7611         c3    253    ccc     C7   7611 -0.01321200  12.010000   ; qtot 0.309177
 7612         h1    253    ccc    H12   7612 0.08172200   1.008000   ; qtot 0.390899
 7613         h1    253    ccc    H13   7613 0.08172200   1.008000   ; qtot 0.472621
 7614         c3    253    ccc     C8   7614 -0.22180000  12.010000   ; qtot 0.250821
 7615         hc    253    ccc    H14   7615 0.09671800   1.008000   ; qtot 0.347539
 7616         hc    253    ccc    H15   7616 0.09671800   1.008000   ; qtot 0.444257
 7617          c    253    ccc     C9   7617 0.526324  12.010000   ; qtot 1.440784
 7618          o    253    ccc     O3   7618 -0.39142825  16.000000   ; qtot 0.744278
 7619         oh    253    ccc     O4   7619 -0.56822625  16.000000   ; qtot -0.096533
 7620         ho    253    ccc    H16   7620 0.4186155   1.008000   ; qtot 0.429542
 7621         os    253    ccc     O5   7621 -0.42966500  16.000000   ; qtot -0.000123

[ bonds ]
;    ai     aj funct         c0         c1         c2         c3
      1      2     1   0.14316 258236.480000
      1      5     1   0.14316 258236.480000
      2      8     1   0.15375 251793.120000
      5     11     1   0.15375 251793.120000
      8     14     1   0.15375 251793.120000
     11     17     1   0.15375 251793.120000
     14     20     1   0.14647 272713.120000
     17     21     1   0.14647 272713.120000
     20     28     1   0.14647 272713.120000
     20     31     1   0.14647 272713.120000
     21     22     1   0.14647 272713.120000
     21     25     1   0.14647 272713.120000
     22     34     1   0.15375 251793.120000
     25     37     1   0.15375 251793.120000
     28     40     1   0.15375 251793.120000
     31     43     1   0.15375 251793.120000
     34     55     1   0.15375 251793.120000
     37     52     1   0.15375 251793.120000
     40     49     1   0.15375 251793.120000
     43     46     1   0.15375 251793.120000
     46     86     1   0.14316 258236.480000
     49    115     1   0.14316 258236.480000
     52    144     1   0.14316 258236.480000
     55    173     1   0.14316 258236.480000
     58     59     1   0.14647 272713.120000
     58     62     1   0.14647 272713.120000
     58     65     1   0.14647 272713.120000
     59     71     1   0.15375 251793.120000
     62     74     1   0.15375 251793.120000
     65     68     1   0.15375 251793.120000
     68     77     1   0.15375 251793.120000
     71     83     1   0.15375 251793.120000
     74     80     1   0.15375 251793.120000
     77     86     1   0.14316 258236.480000
     80    202     1   0.14316 258236.480000
     83    231     1   0.14316 258236.480000
     87     88     1   0.14647 272713.120000
     87     91     1   0.14647 272713.120000
     87     94     1   0.14647 272713.120000
     88    100     1   0.15375 251793.120000
     91    103     1   0.15375 251793.120000
     94     97     1   0.15375 251793.120000
     97    106     1   0.15375 251793.120000
    100    112     1   0.15375 251793.120000
    103    109     1   0.15375 251793.120000
    106    115     1   0.14316 258236.480000
    109    260     1   0.14316 258236.480000
    112    289     1   0.14316 258236.480000
    116    117     1   0.14647 272713.120000
    116    120     1   0.14647 272713.120000
    116    123     1   0.14647 272713.120000
    117    129     1   0.15375 251793.120000
    120    132     1   0.15375 251793.120000
    123    126     1   0.15375 251793.120000
    126    135     1   0.15375 251793.120000
    129    141     1   0.15375 251793.120000
    132    138     1   0.15375 251793.120000
    135    144     1   0.14316 258236.480000
    138    318     1   0.14316 258236.480000
    141    347     1   0.14316 258236.480000
    145    146     1   0.14647 272713.120000
    145    149     1   0.14647 272713.120000
    145    152     1   0.14647 272713.120000
    146    158     1   0.15375 251793.120000
    149    161     1   0.15375 251793.120000
    152    155     1   0.15375 251793.120000
    155    164     1   0.15375 251793.120000
    158    170     1   0.15375 251793.120000
    161    167     1   0.15375 251793.120000
    164    173     1   0.14316 258236.480000
    167    376     1   0.14316 258236.480000
    170    405     1   0.14316 258236.480000
    174    175     1   0.14647 272713.120000
    174    178     1   0.14647 272713.120000
    174    181     1   0.14647 272713.120000
    175    187     1   0.15375 251793.120000
    178    190     1   0.15375 251793.120000
    181    184     1   0.15375 251793.120000
    184    193     1   0.15375 251793.120000
    187    199     1   0.15375 251793.120000
    190    196     1   0.15375 251793.120000
    193    202     1   0.14316 258236.480000
    196    434     1   0.14316 258236.480000
    199    463     1   0.14316 258236.480000
    203    204     1   0.14647 272713.120000
    203    207     1   0.14647 272713.120000
    203    210     1   0.14647 272713.120000
    204    216     1   0.15375 251793.120000
    207    219     1   0.15375 251793.120000
    210    213     1   0.15375 251793.120000
    213    222     1   0.15375 251793.120000
    216    228     1   0.15375 251793.120000
    219    225     1   0.15375 251793.120000
    222    231     1   0.14316 258236.480000
    225    492     1   0.14316 258236.480000
    228    521     1   0.14316 258236.480000
    232    233     1   0.14647 272713.120000
    232    236     1   0.14647 272713.120000
    232    239     1   0.14647 272713.120000
    233    245     1   0.15375 251793.120000
    236    248     1   0.15375 251793.120000
    239    242     1   0.15375 251793.120000
    242    251     1   0.15375 251793.120000
    245    257     1   0.15375 251793.120000
    248    254     1   0.15375 251793.120000
    251    260     1   0.14316 258236.480000
    254    550     1   0.14316 258236.480000
    257    579     1   0.14316 258236.480000
    261    262     1   0.14647 272713.120000
    261    265     1   0.14647 272713.120000
    261    268     1   0.14647 272713.120000
    262    274     1   0.15375 251793.120000
    265    277     1   0.15375 251793.120000
    268    271     1   0.15375 251793.120000
    271    280     1   0.15375 251793.120000
    274    286     1   0.15375 251793.120000
    277    283     1   0.15375 251793.120000
    280    289     1   0.14316 258236.480000
    283    608     1   0.14316 258236.480000
    286    637     1   0.14316 258236.480000
    290    291     1   0.14647 272713.120000
    290    294     1   0.14647 272713.120000
    290    297     1   0.14647 272713.120000
    291    303     1   0.15375 251793.120000
    294    306     1   0.15375 251793.120000
    297    300     1   0.15375 251793.120000
    300    309     1   0.15375 251793.120000
    303    315     1   0.15375 251793.120000
    306    312     1   0.15375 251793.120000
    309    318     1   0.14316 258236.480000
    312    666     1   0.14316 258236.480000
    315    695     1   0.14316 258236.480000
    319    320     1   0.14647 272713.120000
    319    323     1   0.14647 272713.120000
    319    326     1   0.14647 272713.120000
    320    332     1   0.15375 251793.120000
    323    335     1   0.15375 251793.120000
    326    329     1   0.15375 251793.120000
    329    338     1   0.15375 251793.120000
    332    344     1   0.15375 251793.120000
    335    341     1   0.15375 251793.120000
    338    347     1   0.14316 258236.480000
    341    724     1   0.14316 258236.480000
    344    753     1   0.14316 258236.480000
    348    349     1   0.14647 272713.120000
    348    352     1   0.14647 272713.120000
    348    355     1   0.14647 272713.120000
    349    361     1   0.15375 251793.120000
    352    364     1   0.15375 251793.120000
    355    358     1   0.15375 251793.120000
    358    367     1   0.15375 251793.120000
    361    373     1   0.15375 251793.120000
    364    370     1   0.15375 251793.120000
    367    376     1   0.14316 258236.480000
    370    782     1   0.14316 258236.480000
    373    811     1   0.14316 258236.480000
    377    378     1   0.14647 272713.120000
    377    381     1   0.14647 272713.120000
    377    384     1   0.14647 272713.120000
    378    390     1   0.15375 251793.120000
    381    393     1   0.15375 251793.120000
    384    387     1   0.15375 251793.120000
    387    396     1   0.15375 251793.120000
    390    402     1   0.15375 251793.120000
    393    399     1   0.15375 251793.120000
    396    405     1   0.14316 258236.480000
    399    840     1   0.14316 258236.480000
    402    869     1   0.14316 258236.480000
    406    407     1   0.14647 272713.120000
    406    410     1   0.14647 272713.120000
    406    413     1   0.14647 272713.120000
    407    419     1   0.15375 251793.120000
    410    422     1   0.15375 251793.120000
    413    416     1   0.15375 251793.120000
    416    425     1   0.15375 251793.120000
    419    431     1   0.15375 251793.120000
    422    428     1   0.15375 251793.120000
    425    434     1   0.14316 258236.480000
    428    898     1   0.14316 258236.480000
    431    927     1   0.14316 258236.480000
    435    436     1   0.14647 272713.120000
    435    439     1   0.14647 272713.120000
    435    442     1   0.14647 272713.120000
    436    448     1   0.15375 251793.120000
    439    451     1   0.15375 251793.120000
    442    445     1   0.15375 251793.120000
    445    454     1   0.15375 251793.120000
    448    460     1   0.15375 251793.120000
    451    457     1   0.15375 251793.120000
    454    463     1   0.14316 258236.480000
    457    956     1   0.14316 258236.480000
    460    985     1   0.14316 258236.480000
    464    465     1   0.14647 272713.120000
    464    468     1   0.14647 272713.120000
    464    471     1   0.14647 272713.120000
    465    477     1   0.15375 251793.120000
    468    480     1   0.15375 251793.120000
    471    474     1   0.15375 251793.120000
    474    483     1   0.15375 251793.120000
    477    489     1   0.15375 251793.120000
    480    486     1   0.15375 251793.120000
    483    492     1   0.14316 258236.480000
    486   1014     1   0.14316 258236.480000
    489   1043     1   0.14316 258236.480000
    493    494     1   0.14647 272713.120000
    493    497     1   0.14647 272713.120000
    493    500     1   0.14647 272713.120000
    494    506     1   0.15375 251793.120000
    497    509     1   0.15375 251793.120000
    500    503     1   0.15375 251793.120000
    503    512     1   0.15375 251793.120000
    506    518     1   0.15375 251793.120000
    509    515     1   0.15375 251793.120000
    512    521     1   0.14316 258236.480000
    515   1072     1   0.14316 258236.480000
    518   1101     1   0.14316 258236.480000
    522    523     1   0.14647 272713.120000
    522    526     1   0.14647 272713.120000
    522    529     1   0.14647 272713.120000
    523    535     1   0.15375 251793.120000
    526    538     1   0.15375 251793.120000
    529    532     1   0.15375 251793.120000
    532    541     1   0.15375 251793.120000
    535    547     1   0.15375 251793.120000
    538    544     1   0.15375 251793.120000
    541    550     1   0.14316 258236.480000
    544   1130     1   0.14316 258236.480000
    547   1159     1   0.14316 258236.480000
    551    552     1   0.14647 272713.120000
    551    555     1   0.14647 272713.120000
    551    558     1   0.14647 272713.120000
    552    564     1   0.15375 251793.120000
    555    567     1   0.15375 251793.120000
    558    561     1   0.15375 251793.120000
    561    570     1   0.15375 251793.120000
    564    576     1   0.15375 251793.120000
    567    573     1   0.15375 251793.120000
    570    579     1   0.14316 258236.480000
    573   1188     1   0.14316 258236.480000
    576   1217     1   0.14316 258236.480000
    580    581     1   0.14647 272713.120000
    580    584     1   0.14647 272713.120000
    580    587     1   0.14647 272713.120000
    581    593     1   0.15375 251793.120000
    584    596     1   0.15375 251793.120000
    587    590     1   0.15375 251793.120000
    590    599     1   0.15375 251793.120000
    593    605     1   0.15375 251793.120000
    596    602     1   0.15375 251793.120000
    599    608     1   0.14316 258236.480000
    602   1246     1   0.14316 258236.480000
    605   1275     1   0.14316 258236.480000
    609    610     1   0.14647 272713.120000
    609    613     1   0.14647 272713.120000
    609    616     1   0.14647 272713.120000
    610    622     1   0.15375 251793.120000
    613    625     1   0.15375 251793.120000
    616    619     1   0.15375 251793.120000
    619    628     1   0.15375 251793.120000
    622    634     1   0.15375 251793.120000
    625    631     1   0.15375 251793.120000
    628    637     1   0.14316 258236.480000
    631   1304     1   0.14316 258236.480000
    634   1333     1   0.14316 258236.480000
    638    639     1   0.14647 272713.120000
    638    642     1   0.14647 272713.120000
    638    645     1   0.14647 272713.120000
    639    651     1   0.15375 251793.120000
    642    654     1   0.15375 251793.120000
    645    648     1   0.15375 251793.120000
    648    657     1   0.15375 251793.120000
    651    663     1   0.15375 251793.120000
    654    660     1   0.15375 251793.120000
    657    666     1   0.14316 258236.480000
    660   1362     1   0.14316 258236.480000
    663   1391     1   0.14316 258236.480000
    667    668     1   0.14647 272713.120000
    667    671     1   0.14647 272713.120000
    667    674     1   0.14647 272713.120000
    668    680     1   0.15375 251793.120000
    671    683     1   0.15375 251793.120000
    674    677     1   0.15375 251793.120000
    677    686     1   0.15375 251793.120000
    680    692     1   0.15375 251793.120000
    683    689     1   0.15375 251793.120000
    686    695     1   0.14316 258236.480000
    689   1420     1   0.14316 258236.480000
    692   1449     1   0.14316 258236.480000
    696    697     1   0.14647 272713.120000
    696    700     1   0.14647 272713.120000
    696    703     1   0.14647 272713.120000
    697    709     1   0.15375 251793.120000
    700    712     1   0.15375 251793.120000
    703    706     1   0.15375 251793.120000
    706    715     1   0.15375 251793.120000
    709    721     1   0.15375 251793.120000
    712    718     1   0.15375 251793.120000
    715    724     1   0.14316 258236.480000
    718   1478     1   0.14316 258236.480000
    721   1507     1   0.14316 258236.480000
    725    726     1   0.14647 272713.120000
    725    729     1   0.14647 272713.120000
    725    732     1   0.14647 272713.120000
    726    738     1   0.15375 251793.120000
    729    741     1   0.15375 251793.120000
    732    735     1   0.15375 251793.120000
    735    744     1   0.15375 251793.120000
    738    750     1   0.15375 251793.120000
    741    747     1   0.15375 251793.120000
    744    753     1   0.14316 258236.480000
    747   1536     1   0.14316 258236.480000
    750   1565     1   0.14316 258236.480000
    754    755     1   0.14647 272713.120000
    754    758     1   0.14647 272713.120000
    754    761     1   0.14647 272713.120000
    755    767     1   0.15375 251793.120000
    758    770     1   0.15375 251793.120000
    761    764     1   0.15375 251793.120000
    764    773     1   0.15375 251793.120000
    767    779     1   0.15375 251793.120000
    770    776     1   0.15375 251793.120000
    773    782     1   0.14316 258236.480000
    776   1594     1   0.14316 258236.480000
    779   1623     1   0.14316 258236.480000
    783    784     1   0.14647 272713.120000
    783    787     1   0.14647 272713.120000
    783    790     1   0.14647 272713.120000
    784    796     1   0.15375 251793.120000
    787    799     1   0.15375 251793.120000
    790    793     1   0.15375 251793.120000
    793    802     1   0.15375 251793.120000
    796    808     1   0.15375 251793.120000
    799    805     1   0.15375 251793.120000
    802    811     1   0.14316 258236.480000
    805   1652     1   0.14316 258236.480000
    808   1681     1   0.14316 258236.480000
    812    813     1   0.14647 272713.120000
    812    816     1   0.14647 272713.120000
    812    819     1   0.14647 272713.120000
    813    825     1   0.15375 251793.120000
    816    828     1   0.15375 251793.120000
    819    822     1   0.15375 251793.120000
    822    831     1   0.15375 251793.120000
    825    837     1   0.15375 251793.120000
    828    834     1   0.15375 251793.120000
    831    840     1   0.14316 258236.480000
    834   1710     1   0.14316 258236.480000
    837   1739     1   0.14316 258236.480000
    841    842     1   0.14647 272713.120000
    841    845     1   0.14647 272713.120000
    841    848     1   0.14647 272713.120000
    842    854     1   0.15375 251793.120000
    845    857     1   0.15375 251793.120000
    848    851     1   0.15375 251793.120000
    851    860     1   0.15375 251793.120000
    854    866     1   0.15375 251793.120000
    857    863     1   0.15375 251793.120000
    860    869     1   0.14316 258236.480000
    863   1768     1   0.14316 258236.480000
    866   1797     1   0.14316 258236.480000
    870    871     1   0.14647 272713.120000
    870    874     1   0.14647 272713.120000
    870    877     1   0.14647 272713.120000
    871    883     1   0.15375 251793.120000
    874    886     1   0.15375 251793.120000
    877    880     1   0.15375 251793.120000
    880    889     1   0.15375 251793.120000
    883    895     1   0.15375 251793.120000
    886    892     1   0.15375 251793.120000
    889    898     1   0.14316 258236.480000
    892   1826     1   0.14316 258236.480000
    895   1855     1   0.14316 258236.480000
    899    900     1   0.14647 272713.120000
    899    903     1   0.14647 272713.120000
    899    906     1   0.14647 272713.120000
    900    912     1   0.15375 251793.120000
    903    915     1   0.15375 251793.120000
    906    909     1   0.15375 251793.120000
    909    918     1   0.15375 251793.120000
    912    924     1   0.15375 251793.120000
    915    921     1   0.15375 251793.120000
    918    927     1   0.14316 258236.480000
    921   1884     1   0.14316 258236.480000
    924   1913     1   0.14316 258236.480000
    928    929     1   0.14647 272713.120000
    928    932     1   0.14647 272713.120000
    928    935     1   0.14647 272713.120000
    929    941     1   0.15375 251793.120000
    932    944     1   0.15375 251793.120000
    935    938     1   0.15375 251793.120000
    938    947     1   0.15375 251793.120000
    941    953     1   0.15375 251793.120000
    944    950     1   0.15375 251793.120000
    947    956     1   0.14316 258236.480000
    950   1942     1   0.14316 258236.480000
    953   1971     1   0.14316 258236.480000
    957    958     1   0.14647 272713.120000
    957    961     1   0.14647 272713.120000
    957    964     1   0.14647 272713.120000
    958    970     1   0.15375 251793.120000
    961    973     1   0.15375 251793.120000
    964    967     1   0.15375 251793.120000
    967    976     1   0.15375 251793.120000
    970    982     1   0.15375 251793.120000
    973    979     1   0.15375 251793.120000
    976    985     1   0.14316 258236.480000
    979   2000     1   0.14316 258236.480000
    982   2029     1   0.14316 258236.480000
    986    987     1   0.14647 272713.120000
    986    990     1   0.14647 272713.120000
    986    993     1   0.14647 272713.120000
    987    999     1   0.15375 251793.120000
    990   1002     1   0.15375 251793.120000
    993    996     1   0.15375 251793.120000
    996   1005     1   0.15375 251793.120000
    999   1011     1   0.15375 251793.120000
   1002   1008     1   0.15375 251793.120000
   1005   1014     1   0.14316 258236.480000
   1008   2058     1   0.14316 258236.480000
   1011   2087     1   0.14316 258236.480000
   1015   1016     1   0.14647 272713.120000
   1015   1019     1   0.14647 272713.120000
   1015   1022     1   0.14647 272713.120000
   1016   1028     1   0.15375 251793.120000
   1019   1031     1   0.15375 251793.120000
   1022   1025     1   0.15375 251793.120000
   1025   1034     1   0.15375 251793.120000
   1028   1040     1   0.15375 251793.120000
   1031   1037     1   0.15375 251793.120000
   1034   1043     1   0.14316 258236.480000
   1037   2116     1   0.14316 258236.480000
   1040   2145     1   0.14316 258236.480000
   1044   1045     1   0.14647 272713.120000
   1044   1048     1   0.14647 272713.120000
   1044   1051     1   0.14647 272713.120000
   1045   1057     1   0.15375 251793.120000
   1048   1060     1   0.15375 251793.120000
   1051   1054     1   0.15375 251793.120000
   1054   1063     1   0.15375 251793.120000
   1057   1069     1   0.15375 251793.120000
   1060   1066     1   0.15375 251793.120000
   1063   1072     1   0.14316 258236.480000
   1066   2174     1   0.14316 258236.480000
   1069   2203     1   0.14316 258236.480000
   1073   1074     1   0.14647 272713.120000
   1073   1077     1   0.14647 272713.120000
   1073   1080     1   0.14647 272713.120000
   1074   1086     1   0.15375 251793.120000
   1077   1089     1   0.15375 251793.120000
   1080   1083     1   0.15375 251793.120000
   1083   1092     1   0.15375 251793.120000
   1086   1098     1   0.15375 251793.120000
   1089   1095     1   0.15375 251793.120000
   1092   1101     1   0.14316 258236.480000
   1095   2232     1   0.14316 258236.480000
   1098   2261     1   0.14316 258236.480000
   1102   1103     1   0.14647 272713.120000
   1102   1106     1   0.14647 272713.120000
   1102   1109     1   0.14647 272713.120000
   1103   1115     1   0.15375 251793.120000
   1106   1118     1   0.15375 251793.120000
   1109   1112     1   0.15375 251793.120000
   1112   1121     1   0.15375 251793.120000
   1115   1127     1   0.15375 251793.120000
   1118   1124     1   0.15375 251793.120000
   1121   1130     1   0.14316 258236.480000
   1124   2290     1   0.14316 258236.480000
   1127   2319     1   0.14316 258236.480000
   1131   1132     1   0.14647 272713.120000
   1131   1135     1   0.14647 272713.120000
   1131   1138     1   0.14647 272713.120000
   1132   1144     1   0.15375 251793.120000
   1135   1147     1   0.15375 251793.120000
   1138   1141     1   0.15375 251793.120000
   1141   1150     1   0.15375 251793.120000
   1144   1156     1   0.15375 251793.120000
   1147   1153     1   0.15375 251793.120000
   1150   1159     1   0.14316 258236.480000
   1153   2348     1   0.14316 258236.480000
   1156   2377     1   0.14316 258236.480000
   1160   1161     1   0.14647 272713.120000
   1160   1164     1   0.14647 272713.120000
   1160   1167     1   0.14647 272713.120000
   1161   1173     1   0.15375 251793.120000
   1164   1176     1   0.15375 251793.120000
   1167   1170     1   0.15375 251793.120000
   1170   1179     1   0.15375 251793.120000
   1173   1185     1   0.15375 251793.120000
   1176   1182     1   0.15375 251793.120000
   1179   1188     1   0.14316 258236.480000
   1182   2406     1   0.14316 258236.480000
   1185   2435     1   0.14316 258236.480000
   1189   1190     1   0.14647 272713.120000
   1189   1193     1   0.14647 272713.120000
   1189   1196     1   0.14647 272713.120000
   1190   1202     1   0.15375 251793.120000
   1193   1205     1   0.15375 251793.120000
   1196   1199     1   0.15375 251793.120000
   1199   1208     1   0.15375 251793.120000
   1202   1214     1   0.15375 251793.120000
   1205   1211     1   0.15375 251793.120000
   1208   1217     1   0.14316 258236.480000
   1211   2464     1   0.14316 258236.480000
   1214   2493     1   0.14316 258236.480000
   1218   1219     1   0.14647 272713.120000
   1218   1222     1   0.14647 272713.120000
   1218   1225     1   0.14647 272713.120000
   1219   1231     1   0.15375 251793.120000
   1222   1234     1   0.15375 251793.120000
   1225   1228     1   0.15375 251793.120000
   1228   1237     1   0.15375 251793.120000
   1231   1243     1   0.15375 251793.120000
   1234   1240     1   0.15375 251793.120000
   1237   1246     1   0.14316 258236.480000
   1240   2522     1   0.14316 258236.480000
   1243   2551     1   0.14316 258236.480000
   1247   1248     1   0.14647 272713.120000
   1247   1251     1   0.14647 272713.120000
   1247   1254     1   0.14647 272713.120000
   1248   1260     1   0.15375 251793.120000
   1251   1263     1   0.15375 251793.120000
   1254   1257     1   0.15375 251793.120000
   1257   1266     1   0.15375 251793.120000
   1260   1272     1   0.15375 251793.120000
   1263   1269     1   0.15375 251793.120000
   1266   1275     1   0.14316 258236.480000
   1269   2580     1   0.14316 258236.480000
   1272   2609     1   0.14316 258236.480000
   1276   1277     1   0.14647 272713.120000
   1276   1280     1   0.14647 272713.120000
   1276   1283     1   0.14647 272713.120000
   1277   1289     1   0.15375 251793.120000
   1280   1292     1   0.15375 251793.120000
   1283   1286     1   0.15375 251793.120000
   1286   1295     1   0.15375 251793.120000
   1289   1301     1   0.15375 251793.120000
   1292   1298     1   0.15375 251793.120000
   1295   1304     1   0.14316 258236.480000
   1298   2638     1   0.14316 258236.480000
   1301   2667     1   0.14316 258236.480000
   1305   1306     1   0.14647 272713.120000
   1305   1309     1   0.14647 272713.120000
   1305   1312     1   0.14647 272713.120000
   1306   1318     1   0.15375 251793.120000
   1309   1321     1   0.15375 251793.120000
   1312   1315     1   0.15375 251793.120000
   1315   1324     1   0.15375 251793.120000
   1318   1330     1   0.15375 251793.120000
   1321   1327     1   0.15375 251793.120000
   1324   1333     1   0.14316 258236.480000
   1327   2696     1   0.14316 258236.480000
   1330   2725     1   0.14316 258236.480000
   1334   1335     1   0.14647 272713.120000
   1334   1338     1   0.14647 272713.120000
   1334   1341     1   0.14647 272713.120000
   1335   1347     1   0.15375 251793.120000
   1338   1350     1   0.15375 251793.120000
   1341   1344     1   0.15375 251793.120000
   1344   1353     1   0.15375 251793.120000
   1347   1359     1   0.15375 251793.120000
   1350   1356     1   0.15375 251793.120000
   1353   1362     1   0.14316 258236.480000
   1356   2754     1   0.14316 258236.480000
   1359   2783     1   0.14316 258236.480000
   1363   1364     1   0.14647 272713.120000
   1363   1367     1   0.14647 272713.120000
   1363   1370     1   0.14647 272713.120000
   1364   1376     1   0.15375 251793.120000
   1367   1379     1   0.15375 251793.120000
   1370   1373     1   0.15375 251793.120000
   1373   1382     1   0.15375 251793.120000
   1376   1388     1   0.15375 251793.120000
   1379   1385     1   0.15375 251793.120000
   1382   1391     1   0.14316 258236.480000
   1385   2812     1   0.14316 258236.480000
   1388   2841     1   0.14316 258236.480000
   1392   1393     1   0.14647 272713.120000
   1392   1396     1   0.14647 272713.120000
   1392   1399     1   0.14647 272713.120000
   1393   1405     1   0.15375 251793.120000
   1396   1408     1   0.15375 251793.120000
   1399   1402     1   0.15375 251793.120000
   1402   1411     1   0.15375 251793.120000
   1405   1417     1   0.15375 251793.120000
   1408   1414     1   0.15375 251793.120000
   1411   1420     1   0.14316 258236.480000
   1414   2870     1   0.14316 258236.480000
   1417   2899     1   0.14316 258236.480000
   1421   1422     1   0.14647 272713.120000
   1421   1425     1   0.14647 272713.120000
   1421   1428     1   0.14647 272713.120000
   1422   1434     1   0.15375 251793.120000
   1425   1437     1   0.15375 251793.120000
   1428   1431     1   0.15375 251793.120000
   1431   1440     1   0.15375 251793.120000
   1434   1446     1   0.15375 251793.120000
   1437   1443     1   0.15375 251793.120000
   1440   1449     1   0.14316 258236.480000
   1443   2928     1   0.14316 258236.480000
   1446   2957     1   0.14316 258236.480000
   1450   1451     1   0.14647 272713.120000
   1450   1454     1   0.14647 272713.120000
   1450   1457     1   0.14647 272713.120000
   1451   1463     1   0.15375 251793.120000
   1454   1466     1   0.15375 251793.120000
   1457   1460     1   0.15375 251793.120000
   1460   1469     1   0.15375 251793.120000
   1463   1475     1   0.15375 251793.120000
   1466   1472     1   0.15375 251793.120000
   1469   1478     1   0.14316 258236.480000
   1472   2986     1   0.14316 258236.480000
   1475   3015     1   0.14316 258236.480000
   1479   1480     1   0.14647 272713.120000
   1479   1483     1   0.14647 272713.120000
   1479   1486     1   0.14647 272713.120000
   1480   1492     1   0.15375 251793.120000
   1483   1495     1   0.15375 251793.120000
   1486   1489     1   0.15375 251793.120000
   1489   1498     1   0.15375 251793.120000
   1492   1504     1   0.15375 251793.120000
   1495   1501     1   0.15375 251793.120000
   1498   1507     1   0.14316 258236.480000
   1501   3044     1   0.14316 258236.480000
   1504   3073     1   0.14316 258236.480000
   1508   1509     1   0.14647 272713.120000
   1508   1512     1   0.14647 272713.120000
   1508   1515     1   0.14647 272713.120000
   1509   1521     1   0.15375 251793.120000
   1512   1524     1   0.15375 251793.120000
   1515   1518     1   0.15375 251793.120000
   1518   1527     1   0.15375 251793.120000
   1521   1533     1   0.15375 251793.120000
   1524   1530     1   0.15375 251793.120000
   1527   1536     1   0.14316 258236.480000
   1530   3102     1   0.14316 258236.480000
   1533   3131     1   0.14316 258236.480000
   1537   1538     1   0.14647 272713.120000
   1537   1541     1   0.14647 272713.120000
   1537   1544     1   0.14647 272713.120000
   1538   1550     1   0.15375 251793.120000
   1541   1553     1   0.15375 251793.120000
   1544   1547     1   0.15375 251793.120000
   1547   1556     1   0.15375 251793.120000
   1550   1562     1   0.15375 251793.120000
   1553   1559     1   0.15375 251793.120000
   1556   1565     1   0.14316 258236.480000
   1559   3160     1   0.14316 258236.480000
   1562   3189     1   0.14316 258236.480000
   1566   1567     1   0.14647 272713.120000
   1566   1570     1   0.14647 272713.120000
   1566   1573     1   0.14647 272713.120000
   1567   1579     1   0.15375 251793.120000
   1570   1582     1   0.15375 251793.120000
   1573   1576     1   0.15375 251793.120000
   1576   1585     1   0.15375 251793.120000
   1579   1591     1   0.15375 251793.120000
   1582   1588     1   0.15375 251793.120000
   1585   1594     1   0.14316 258236.480000
   1588   3218     1   0.14316 258236.480000
   1591   3247     1   0.14316 258236.480000
   1595   1596     1   0.14647 272713.120000
   1595   1599     1   0.14647 272713.120000
   1595   1602     1   0.14647 272713.120000
   1596   1608     1   0.15375 251793.120000
   1599   1611     1   0.15375 251793.120000
   1602   1605     1   0.15375 251793.120000
   1605   1614     1   0.15375 251793.120000
   1608   1620     1   0.15375 251793.120000
   1611   1617     1   0.15375 251793.120000
   1614   1623     1   0.14316 258236.480000
   1617   3276     1   0.14316 258236.480000
   1620   3305     1   0.14316 258236.480000
   1624   1625     1   0.14647 272713.120000
   1624   1628     1   0.14647 272713.120000
   1624   1631     1   0.14647 272713.120000
   1625   1637     1   0.15375 251793.120000
   1628   1640     1   0.15375 251793.120000
   1631   1634     1   0.15375 251793.120000
   1634   1643     1   0.15375 251793.120000
   1637   1649     1   0.15375 251793.120000
   1640   1646     1   0.15375 251793.120000
   1643   1652     1   0.14316 258236.480000
   1646   3334     1   0.14316 258236.480000
   1649   3363     1   0.14316 258236.480000
   1653   1654     1   0.14647 272713.120000
   1653   1657     1   0.14647 272713.120000
   1653   1660     1   0.14647 272713.120000
   1654   1666     1   0.15375 251793.120000
   1657   1669     1   0.15375 251793.120000
   1660   1663     1   0.15375 251793.120000
   1663   1672     1   0.15375 251793.120000
   1666   1678     1   0.15375 251793.120000
   1669   1675     1   0.15375 251793.120000
   1672   1681     1   0.14316 258236.480000
   1675   3392     1   0.14316 258236.480000
   1678   3421     1   0.14316 258236.480000
   1682   1683     1   0.14647 272713.120000
   1682   1686     1   0.14647 272713.120000
   1682   1689     1   0.14647 272713.120000
   1683   1695     1   0.15375 251793.120000
   1686   1698     1   0.15375 251793.120000
   1689   1692     1   0.15375 251793.120000
   1692   1701     1   0.15375 251793.120000
   1695   1707     1   0.15375 251793.120000
   1698   1704     1   0.15375 251793.120000
   1701   1710     1   0.14316 258236.480000
   1704   3450     1   0.14316 258236.480000
   1707   3479     1   0.14316 258236.480000
   1711   1712     1   0.14647 272713.120000
   1711   1715     1   0.14647 272713.120000
   1711   1718     1   0.14647 272713.120000
   1712   1724     1   0.15375 251793.120000
   1715   1727     1   0.15375 251793.120000
   1718   1721     1   0.15375 251793.120000
   1721   1730     1   0.15375 251793.120000
   1724   1736     1   0.15375 251793.120000
   1727   1733     1   0.15375 251793.120000
   1730   1739     1   0.14316 258236.480000
   1733   3508     1   0.14316 258236.480000
   1736   3537     1   0.14316 258236.480000
   1740   1741     1   0.14647 272713.120000
   1740   1744     1   0.14647 272713.120000
   1740   1747     1   0.14647 272713.120000
   1741   1753     1   0.15375 251793.120000
   1744   1756     1   0.15375 251793.120000
   1747   1750     1   0.15375 251793.120000
   1750   1759     1   0.15375 251793.120000
   1753   1765     1   0.15375 251793.120000
   1756   1762     1   0.15375 251793.120000
   1759   1768     1   0.14316 258236.480000
   1762   3566     1   0.14316 258236.480000
   1765   3595     1   0.14316 258236.480000
   1769   1770     1   0.14647 272713.120000
   1769   1773     1   0.14647 272713.120000
   1769   1776     1   0.14647 272713.120000
   1770   1782     1   0.15375 251793.120000
   1773   1785     1   0.15375 251793.120000
   1776   1779     1   0.15375 251793.120000
   1779   1788     1   0.15375 251793.120000
   1782   1794     1   0.15375 251793.120000
   1785   1791     1   0.15375 251793.120000
   1788   1797     1   0.14316 258236.480000
   1791   3624     1   0.14316 258236.480000
   1794   3653     1   0.14316 258236.480000
   1798   1799     1   0.14647 272713.120000
   1798   1802     1   0.14647 272713.120000
   1798   1805     1   0.14647 272713.120000
   1799   1811     1   0.15375 251793.120000
   1802   1814     1   0.15375 251793.120000
   1805   1808     1   0.15375 251793.120000
   1808   1817     1   0.15375 251793.120000
   1811   1823     1   0.15375 251793.120000
   1814   1820     1   0.15375 251793.120000
   1817   1826     1   0.14316 258236.480000
   1820   3684     1   0.14316 258236.480000
   1823   3715     1   0.14316 258236.480000
   1827   1828     1   0.14647 272713.120000
   1827   1831     1   0.14647 272713.120000
   1827   1834     1   0.14647 272713.120000
   1828   1840     1   0.15375 251793.120000
   1831   1843     1   0.15375 251793.120000
   1834   1837     1   0.15375 251793.120000
   1837   1846     1   0.15375 251793.120000
   1840   1852     1   0.15375 251793.120000
   1843   1849     1   0.15375 251793.120000
   1846   1855     1   0.14316 258236.480000
   1849   3746     1   0.14316 258236.480000
   1852   3777     1   0.14316 258236.480000
   1856   1857     1   0.14647 272713.120000
   1856   1860     1   0.14647 272713.120000
   1856   1863     1   0.14647 272713.120000
   1857   1869     1   0.15375 251793.120000
   1860   1872     1   0.15375 251793.120000
   1863   1866     1   0.15375 251793.120000
   1866   1875     1   0.15375 251793.120000
   1869   1881     1   0.15375 251793.120000
   1872   1878     1   0.15375 251793.120000
   1875   1884     1   0.14316 258236.480000
   1878   3808     1   0.14316 258236.480000
   1881   3839     1   0.14316 258236.480000
   1885   1886     1   0.14647 272713.120000
   1885   1889     1   0.14647 272713.120000
   1885   1892     1   0.14647 272713.120000
   1886   1898     1   0.15375 251793.120000
   1889   1901     1   0.15375 251793.120000
   1892   1895     1   0.15375 251793.120000
   1895   1904     1   0.15375 251793.120000
   1898   1910     1   0.15375 251793.120000
   1901   1907     1   0.15375 251793.120000
   1904   1913     1   0.14316 258236.480000
   1907   3870     1   0.14316 258236.480000
   1910   3901     1   0.14316 258236.480000
   1914   1915     1   0.14647 272713.120000
   1914   1918     1   0.14647 272713.120000
   1914   1921     1   0.14647 272713.120000
   1915   1927     1   0.15375 251793.120000
   1918   1930     1   0.15375 251793.120000
   1921   1924     1   0.15375 251793.120000
   1924   1933     1   0.15375 251793.120000
   1927   1939     1   0.15375 251793.120000
   1930   1936     1   0.15375 251793.120000
   1933   1942     1   0.14316 258236.480000
   1936   3932     1   0.14316 258236.480000
   1939   3963     1   0.14316 258236.480000
   1943   1944     1   0.14647 272713.120000
   1943   1947     1   0.14647 272713.120000
   1943   1950     1   0.14647 272713.120000
   1944   1956     1   0.15375 251793.120000
   1947   1959     1   0.15375 251793.120000
   1950   1953     1   0.15375 251793.120000
   1953   1962     1   0.15375 251793.120000
   1956   1968     1   0.15375 251793.120000
   1959   1965     1   0.15375 251793.120000
   1962   1971     1   0.14316 258236.480000
   1965   3994     1   0.14316 258236.480000
   1968   4025     1   0.14316 258236.480000
   1972   1973     1   0.14647 272713.120000
   1972   1976     1   0.14647 272713.120000
   1972   1979     1   0.14647 272713.120000
   1973   1985     1   0.15375 251793.120000
   1976   1988     1   0.15375 251793.120000
   1979   1982     1   0.15375 251793.120000
   1982   1991     1   0.15375 251793.120000
   1985   1997     1   0.15375 251793.120000
   1988   1994     1   0.15375 251793.120000
   1991   2000     1   0.14316 258236.480000
   1994   4056     1   0.14316 258236.480000
   1997   4087     1   0.14316 258236.480000
   2001   2002     1   0.14647 272713.120000
   2001   2005     1   0.14647 272713.120000
   2001   2008     1   0.14647 272713.120000
   2002   2014     1   0.15375 251793.120000
   2005   2017     1   0.15375 251793.120000
   2008   2011     1   0.15375 251793.120000
   2011   2020     1   0.15375 251793.120000
   2014   2026     1   0.15375 251793.120000
   2017   2023     1   0.15375 251793.120000
   2020   2029     1   0.14316 258236.480000
   2023   4118     1   0.14316 258236.480000
   2026   4149     1   0.14316 258236.480000
   2030   2031     1   0.14647 272713.120000
   2030   2034     1   0.14647 272713.120000
   2030   2037     1   0.14647 272713.120000
   2031   2043     1   0.15375 251793.120000
   2034   2046     1   0.15375 251793.120000
   2037   2040     1   0.15375 251793.120000
   2040   2049     1   0.15375 251793.120000
   2043   2055     1   0.15375 251793.120000
   2046   2052     1   0.15375 251793.120000
   2049   2058     1   0.14316 258236.480000
   2052   4180     1   0.14316 258236.480000
   2055   4211     1   0.14316 258236.480000
   2059   2060     1   0.14647 272713.120000
   2059   2063     1   0.14647 272713.120000
   2059   2066     1   0.14647 272713.120000
   2060   2072     1   0.15375 251793.120000
   2063   2075     1   0.15375 251793.120000
   2066   2069     1   0.15375 251793.120000
   2069   2078     1   0.15375 251793.120000
   2072   2084     1   0.15375 251793.120000
   2075   2081     1   0.15375 251793.120000
   2078   2087     1   0.14316 258236.480000
   2081   4242     1   0.14316 258236.480000
   2084   4273     1   0.14316 258236.480000
   2088   2089     1   0.14647 272713.120000
   2088   2092     1   0.14647 272713.120000
   2088   2095     1   0.14647 272713.120000
   2089   2101     1   0.15375 251793.120000
   2092   2104     1   0.15375 251793.120000
   2095   2098     1   0.15375 251793.120000
   2098   2107     1   0.15375 251793.120000
   2101   2113     1   0.15375 251793.120000
   2104   2110     1   0.15375 251793.120000
   2107   2116     1   0.14316 258236.480000
   2110   4304     1   0.14316 258236.480000
   2113   4335     1   0.14316 258236.480000
   2117   2118     1   0.14647 272713.120000
   2117   2121     1   0.14647 272713.120000
   2117   2124     1   0.14647 272713.120000
   2118   2130     1   0.15375 251793.120000
   2121   2133     1   0.15375 251793.120000
   2124   2127     1   0.15375 251793.120000
   2127   2136     1   0.15375 251793.120000
   2130   2142     1   0.15375 251793.120000
   2133   2139     1   0.15375 251793.120000
   2136   2145     1   0.14316 258236.480000
   2139   4366     1   0.14316 258236.480000
   2142   4397     1   0.14316 258236.480000
   2146   2147     1   0.14647 272713.120000
   2146   2150     1   0.14647 272713.120000
   2146   2153     1   0.14647 272713.120000
   2147   2159     1   0.15375 251793.120000
   2150   2162     1   0.15375 251793.120000
   2153   2156     1   0.15375 251793.120000
   2156   2165     1   0.15375 251793.120000
   2159   2171     1   0.15375 251793.120000
   2162   2168     1   0.15375 251793.120000
   2165   2174     1   0.14316 258236.480000
   2168   4428     1   0.14316 258236.480000
   2171   4459     1   0.14316 258236.480000
   2175   2176     1   0.14647 272713.120000
   2175   2179     1   0.14647 272713.120000
   2175   2182     1   0.14647 272713.120000
   2176   2188     1   0.15375 251793.120000
   2179   2191     1   0.15375 251793.120000
   2182   2185     1   0.15375 251793.120000
   2185   2194     1   0.15375 251793.120000
   2188   2200     1   0.15375 251793.120000
   2191   2197     1   0.15375 251793.120000
   2194   2203     1   0.14316 258236.480000
   2197   4490     1   0.14316 258236.480000
   2200   4521     1   0.14316 258236.480000
   2204   2205     1   0.14647 272713.120000
   2204   2208     1   0.14647 272713.120000
   2204   2211     1   0.14647 272713.120000
   2205   2217     1   0.15375 251793.120000
   2208   2220     1   0.15375 251793.120000
   2211   2214     1   0.15375 251793.120000
   2214   2223     1   0.15375 251793.120000
   2217   2229     1   0.15375 251793.120000
   2220   2226     1   0.15375 251793.120000
   2223   2232     1   0.14316 258236.480000
   2226   4552     1   0.14316 258236.480000
   2229   4583     1   0.14316 258236.480000
   2233   2234     1   0.14647 272713.120000
   2233   2237     1   0.14647 272713.120000
   2233   2240     1   0.14647 272713.120000
   2234   2246     1   0.15375 251793.120000
   2237   2249     1   0.15375 251793.120000
   2240   2243     1   0.15375 251793.120000
   2243   2252     1   0.15375 251793.120000
   2246   2258     1   0.15375 251793.120000
   2249   2255     1   0.15375 251793.120000
   2252   2261     1   0.14316 258236.480000
   2255   4614     1   0.14316 258236.480000
   2258   4645     1   0.14316 258236.480000
   2262   2263     1   0.14647 272713.120000
   2262   2266     1   0.14647 272713.120000
   2262   2269     1   0.14647 272713.120000
   2263   2275     1   0.15375 251793.120000
   2266   2278     1   0.15375 251793.120000
   2269   2272     1   0.15375 251793.120000
   2272   2281     1   0.15375 251793.120000
   2275   2287     1   0.15375 251793.120000
   2278   2284     1   0.15375 251793.120000
   2281   2290     1   0.14316 258236.480000
   2284   4676     1   0.14316 258236.480000
   2287   4707     1   0.14316 258236.480000
   2291   2292     1   0.14647 272713.120000
   2291   2295     1   0.14647 272713.120000
   2291   2298     1   0.14647 272713.120000
   2292   2304     1   0.15375 251793.120000
   2295   2307     1   0.15375 251793.120000
   2298   2301     1   0.15375 251793.120000
   2301   2310     1   0.15375 251793.120000
   2304   2316     1   0.15375 251793.120000
   2307   2313     1   0.15375 251793.120000
   2310   2319     1   0.14316 258236.480000
   2313   4738     1   0.14316 258236.480000
   2316   4769     1   0.14316 258236.480000
   2320   2321     1   0.14647 272713.120000
   2320   2324     1   0.14647 272713.120000
   2320   2327     1   0.14647 272713.120000
   2321   2333     1   0.15375 251793.120000
   2324   2336     1   0.15375 251793.120000
   2327   2330     1   0.15375 251793.120000
   2330   2339     1   0.15375 251793.120000
   2333   2345     1   0.15375 251793.120000
   2336   2342     1   0.15375 251793.120000
   2339   2348     1   0.14316 258236.480000
   2342   4800     1   0.14316 258236.480000
   2345   4831     1   0.14316 258236.480000
   2349   2350     1   0.14647 272713.120000
   2349   2353     1   0.14647 272713.120000
   2349   2356     1   0.14647 272713.120000
   2350   2362     1   0.15375 251793.120000
   2353   2365     1   0.15375 251793.120000
   2356   2359     1   0.15375 251793.120000
   2359   2368     1   0.15375 251793.120000
   2362   2374     1   0.15375 251793.120000
   2365   2371     1   0.15375 251793.120000
   2368   2377     1   0.14316 258236.480000
   2371   4862     1   0.14316 258236.480000
   2374   4893     1   0.14316 258236.480000
   2378   2379     1   0.14647 272713.120000
   2378   2382     1   0.14647 272713.120000
   2378   2385     1   0.14647 272713.120000
   2379   2391     1   0.15375 251793.120000
   2382   2394     1   0.15375 251793.120000
   2385   2388     1   0.15375 251793.120000
   2388   2397     1   0.15375 251793.120000
   2391   2403     1   0.15375 251793.120000
   2394   2400     1   0.15375 251793.120000
   2397   2406     1   0.14316 258236.480000
   2400   4924     1   0.14316 258236.480000
   2403   4955     1   0.14316 258236.480000
   2407   2408     1   0.14647 272713.120000
   2407   2411     1   0.14647 272713.120000
   2407   2414     1   0.14647 272713.120000
   2408   2420     1   0.15375 251793.120000
   2411   2423     1   0.15375 251793.120000
   2414   2417     1   0.15375 251793.120000
   2417   2426     1   0.15375 251793.120000
   2420   2432     1   0.15375 251793.120000
   2423   2429     1   0.15375 251793.120000
   2426   2435     1   0.14316 258236.480000
   2429   4986     1   0.14316 258236.480000
   2432   5017     1   0.14316 258236.480000
   2436   2437     1   0.14647 272713.120000
   2436   2440     1   0.14647 272713.120000
   2436   2443     1   0.14647 272713.120000
   2437   2449     1   0.15375 251793.120000
   2440   2452     1   0.15375 251793.120000
   2443   2446     1   0.15375 251793.120000
   2446   2455     1   0.15375 251793.120000
   2449   2461     1   0.15375 251793.120000
   2452   2458     1   0.15375 251793.120000
   2455   2464     1   0.14316 258236.480000
   2458   5048     1   0.14316 258236.480000
   2461   5079     1   0.14316 258236.480000
   2465   2466     1   0.14647 272713.120000
   2465   2469     1   0.14647 272713.120000
   2465   2472     1   0.14647 272713.120000
   2466   2478     1   0.15375 251793.120000
   2469   2481     1   0.15375 251793.120000
   2472   2475     1   0.15375 251793.120000
   2475   2484     1   0.15375 251793.120000
   2478   2490     1   0.15375 251793.120000
   2481   2487     1   0.15375 251793.120000
   2484   2493     1   0.14316 258236.480000
   2487   5110     1   0.14316 258236.480000
   2490   5141     1   0.14316 258236.480000
   2494   2495     1   0.14647 272713.120000
   2494   2498     1   0.14647 272713.120000
   2494   2501     1   0.14647 272713.120000
   2495   2507     1   0.15375 251793.120000
   2498   2510     1   0.15375 251793.120000
   2501   2504     1   0.15375 251793.120000
   2504   2513     1   0.15375 251793.120000
   2507   2519     1   0.15375 251793.120000
   2510   2516     1   0.15375 251793.120000
   2513   2522     1   0.14316 258236.480000
   2516   5172     1   0.14316 258236.480000
   2519   5203     1   0.14316 258236.480000
   2523   2524     1   0.14647 272713.120000
   2523   2527     1   0.14647 272713.120000
   2523   2530     1   0.14647 272713.120000
   2524   2536     1   0.15375 251793.120000
   2527   2539     1   0.15375 251793.120000
   2530   2533     1   0.15375 251793.120000
   2533   2542     1   0.15375 251793.120000
   2536   2548     1   0.15375 251793.120000
   2539   2545     1   0.15375 251793.120000
   2542   2551     1   0.14316 258236.480000
   2545   5234     1   0.14316 258236.480000
   2548   5265     1   0.14316 258236.480000
   2552   2553     1   0.14647 272713.120000
   2552   2556     1   0.14647 272713.120000
   2552   2559     1   0.14647 272713.120000
   2553   2565     1   0.15375 251793.120000
   2556   2568     1   0.15375 251793.120000
   2559   2562     1   0.15375 251793.120000
   2562   2571     1   0.15375 251793.120000
   2565   2577     1   0.15375 251793.120000
   2568   2574     1   0.15375 251793.120000
   2571   2580     1   0.14316 258236.480000
   2574   5296     1   0.14316 258236.480000
   2577   5327     1   0.14316 258236.480000
   2581   2582     1   0.14647 272713.120000
   2581   2585     1   0.14647 272713.120000
   2581   2588     1   0.14647 272713.120000
   2582   2594     1   0.15375 251793.120000
   2585   2597     1   0.15375 251793.120000
   2588   2591     1   0.15375 251793.120000
   2591   2600     1   0.15375 251793.120000
   2594   2606     1   0.15375 251793.120000
   2597   2603     1   0.15375 251793.120000
   2600   2609     1   0.14316 258236.480000
   2603   5358     1   0.14316 258236.480000
   2606   5389     1   0.14316 258236.480000
   2610   2611     1   0.14647 272713.120000
   2610   2614     1   0.14647 272713.120000
   2610   2617     1   0.14647 272713.120000
   2611   2623     1   0.15375 251793.120000
   2614   2626     1   0.15375 251793.120000
   2617   2620     1   0.15375 251793.120000
   2620   2629     1   0.15375 251793.120000
   2623   2635     1   0.15375 251793.120000
   2626   2632     1   0.15375 251793.120000
   2629   2638     1   0.14316 258236.480000
   2632   5420     1   0.14316 258236.480000
   2635   5451     1   0.14316 258236.480000
   2639   2640     1   0.14647 272713.120000
   2639   2643     1   0.14647 272713.120000
   2639   2646     1   0.14647 272713.120000
   2640   2652     1   0.15375 251793.120000
   2643   2655     1   0.15375 251793.120000
   2646   2649     1   0.15375 251793.120000
   2649   2658     1   0.15375 251793.120000
   2652   2664     1   0.15375 251793.120000
   2655   2661     1   0.15375 251793.120000
   2658   2667     1   0.14316 258236.480000
   2661   5482     1   0.14316 258236.480000
   2664   5513     1   0.14316 258236.480000
   2668   2669     1   0.14647 272713.120000
   2668   2672     1   0.14647 272713.120000
   2668   2675     1   0.14647 272713.120000
   2669   2681     1   0.15375 251793.120000
   2672   2684     1   0.15375 251793.120000
   2675   2678     1   0.15375 251793.120000
   2678   2687     1   0.15375 251793.120000
   2681   2693     1   0.15375 251793.120000
   2684   2690     1   0.15375 251793.120000
   2687   2696     1   0.14316 258236.480000
   2690   5544     1   0.14316 258236.480000
   2693   5575     1   0.14316 258236.480000
   2697   2698     1   0.14647 272713.120000
   2697   2701     1   0.14647 272713.120000
   2697   2704     1   0.14647 272713.120000
   2698   2710     1   0.15375 251793.120000
   2701   2713     1   0.15375 251793.120000
   2704   2707     1   0.15375 251793.120000
   2707   2716     1   0.15375 251793.120000
   2710   2722     1   0.15375 251793.120000
   2713   2719     1   0.15375 251793.120000
   2716   2725     1   0.14316 258236.480000
   2719   5606     1   0.14316 258236.480000
   2722   5637     1   0.14316 258236.480000
   2726   2727     1   0.14647 272713.120000
   2726   2730     1   0.14647 272713.120000
   2726   2733     1   0.14647 272713.120000
   2727   2739     1   0.15375 251793.120000
   2730   2742     1   0.15375 251793.120000
   2733   2736     1   0.15375 251793.120000
   2736   2745     1   0.15375 251793.120000
   2739   2751     1   0.15375 251793.120000
   2742   2748     1   0.15375 251793.120000
   2745   2754     1   0.14316 258236.480000
   2748   5668     1   0.14316 258236.480000
   2751   5699     1   0.14316 258236.480000
   2755   2756     1   0.14647 272713.120000
   2755   2759     1   0.14647 272713.120000
   2755   2762     1   0.14647 272713.120000
   2756   2768     1   0.15375 251793.120000
   2759   2771     1   0.15375 251793.120000
   2762   2765     1   0.15375 251793.120000
   2765   2774     1   0.15375 251793.120000
   2768   2780     1   0.15375 251793.120000
   2771   2777     1   0.15375 251793.120000
   2774   2783     1   0.14316 258236.480000
   2777   5730     1   0.14316 258236.480000
   2780   5761     1   0.14316 258236.480000
   2784   2785     1   0.14647 272713.120000
   2784   2788     1   0.14647 272713.120000
   2784   2791     1   0.14647 272713.120000
   2785   2797     1   0.15375 251793.120000
   2788   2800     1   0.15375 251793.120000
   2791   2794     1   0.15375 251793.120000
   2794   2803     1   0.15375 251793.120000
   2797   2809     1   0.15375 251793.120000
   2800   2806     1   0.15375 251793.120000
   2803   2812     1   0.14316 258236.480000
   2806   5792     1   0.14316 258236.480000
   2809   5823     1   0.14316 258236.480000
   2813   2814     1   0.14647 272713.120000
   2813   2817     1   0.14647 272713.120000
   2813   2820     1   0.14647 272713.120000
   2814   2826     1   0.15375 251793.120000
   2817   2829     1   0.15375 251793.120000
   2820   2823     1   0.15375 251793.120000
   2823   2832     1   0.15375 251793.120000
   2826   2838     1   0.15375 251793.120000
   2829   2835     1   0.15375 251793.120000
   2832   2841     1   0.14316 258236.480000
   2835   5854     1   0.14316 258236.480000
   2838   5885     1   0.14316 258236.480000
   2842   2843     1   0.14647 272713.120000
   2842   2846     1   0.14647 272713.120000
   2842   2849     1   0.14647 272713.120000
   2843   2855     1   0.15375 251793.120000
   2846   2858     1   0.15375 251793.120000
   2849   2852     1   0.15375 251793.120000
   2852   2861     1   0.15375 251793.120000
   2855   2867     1   0.15375 251793.120000
   2858   2864     1   0.15375 251793.120000
   2861   2870     1   0.14316 258236.480000
   2864   5916     1   0.14316 258236.480000
   2867   5947     1   0.14316 258236.480000
   2871   2872     1   0.14647 272713.120000
   2871   2875     1   0.14647 272713.120000
   2871   2878     1   0.14647 272713.120000
   2872   2884     1   0.15375 251793.120000
   2875   2887     1   0.15375 251793.120000
   2878   2881     1   0.15375 251793.120000
   2881   2890     1   0.15375 251793.120000
   2884   2896     1   0.15375 251793.120000
   2887   2893     1   0.15375 251793.120000
   2890   2899     1   0.14316 258236.480000
   2893   5978     1   0.14316 258236.480000
   2896   6009     1   0.14316 258236.480000
   2900   2901     1   0.14647 272713.120000
   2900   2904     1   0.14647 272713.120000
   2900   2907     1   0.14647 272713.120000
   2901   2913     1   0.15375 251793.120000
   2904   2916     1   0.15375 251793.120000
   2907   2910     1   0.15375 251793.120000
   2910   2919     1   0.15375 251793.120000
   2913   2925     1   0.15375 251793.120000
   2916   2922     1   0.15375 251793.120000
   2919   2928     1   0.14316 258236.480000
   2922   6040     1   0.14316 258236.480000
   2925   6071     1   0.14316 258236.480000
   2929   2930     1   0.14647 272713.120000
   2929   2933     1   0.14647 272713.120000
   2929   2936     1   0.14647 272713.120000
   2930   2942     1   0.15375 251793.120000
   2933   2945     1   0.15375 251793.120000
   2936   2939     1   0.15375 251793.120000
   2939   2948     1   0.15375 251793.120000
   2942   2954     1   0.15375 251793.120000
   2945   2951     1   0.15375 251793.120000
   2948   2957     1   0.14316 258236.480000
   2951   6102     1   0.14316 258236.480000
   2954   6133     1   0.14316 258236.480000
   2958   2959     1   0.14647 272713.120000
   2958   2962     1   0.14647 272713.120000
   2958   2965     1   0.14647 272713.120000
   2959   2971     1   0.15375 251793.120000
   2962   2974     1   0.15375 251793.120000
   2965   2968     1   0.15375 251793.120000
   2968   2977     1   0.15375 251793.120000
   2971   2983     1   0.15375 251793.120000
   2974   2980     1   0.15375 251793.120000
   2977   2986     1   0.14316 258236.480000
   2980   6164     1   0.14316 258236.480000
   2983   6195     1   0.14316 258236.480000
   2987   2988     1   0.14647 272713.120000
   2987   2991     1   0.14647 272713.120000
   2987   2994     1   0.14647 272713.120000
   2988   3000     1   0.15375 251793.120000
   2991   3003     1   0.15375 251793.120000
   2994   2997     1   0.15375 251793.120000
   2997   3006     1   0.15375 251793.120000
   3000   3012     1   0.15375 251793.120000
   3003   3009     1   0.15375 251793.120000
   3006   3015     1   0.14316 258236.480000
   3009   6226     1   0.14316 258236.480000
   3012   6257     1   0.14316 258236.480000
   3016   3017     1   0.14647 272713.120000
   3016   3020     1   0.14647 272713.120000
   3016   3023     1   0.14647 272713.120000
   3017   3029     1   0.15375 251793.120000
   3020   3032     1   0.15375 251793.120000
   3023   3026     1   0.15375 251793.120000
   3026   3035     1   0.15375 251793.120000
   3029   3041     1   0.15375 251793.120000
   3032   3038     1   0.15375 251793.120000
   3035   3044     1   0.14316 258236.480000
   3038   6288     1   0.14316 258236.480000
   3041   6319     1   0.14316 258236.480000
   3045   3046     1   0.14647 272713.120000
   3045   3049     1   0.14647 272713.120000
   3045   3052     1   0.14647 272713.120000
   3046   3058     1   0.15375 251793.120000
   3049   3061     1   0.15375 251793.120000
   3052   3055     1   0.15375 251793.120000
   3055   3064     1   0.15375 251793.120000
   3058   3070     1   0.15375 251793.120000
   3061   3067     1   0.15375 251793.120000
   3064   3073     1   0.14316 258236.480000
   3067   6350     1   0.14316 258236.480000
   3070   6381     1   0.14316 258236.480000
   3074   3075     1   0.14647 272713.120000
   3074   3078     1   0.14647 272713.120000
   3074   3081     1   0.14647 272713.120000
   3075   3087     1   0.15375 251793.120000
   3078   3090     1   0.15375 251793.120000
   3081   3084     1   0.15375 251793.120000
   3084   3093     1   0.15375 251793.120000
   3087   3099     1   0.15375 251793.120000
   3090   3096     1   0.15375 251793.120000
   3093   3102     1   0.14316 258236.480000
   3096   6412     1   0.14316 258236.480000
   3099   6443     1   0.14316 258236.480000
   3103   3104     1   0.14647 272713.120000
   3103   3107     1   0.14647 272713.120000
   3103   3110     1   0.14647 272713.120000
   3104   3116     1   0.15375 251793.120000
   3107   3119     1   0.15375 251793.120000
   3110   3113     1   0.15375 251793.120000
   3113   3122     1   0.15375 251793.120000
   3116   3128     1   0.15375 251793.120000
   3119   3125     1   0.15375 251793.120000
   3122   3131     1   0.14316 258236.480000
   3125   6474     1   0.14316 258236.480000
   3128   6505     1   0.14316 258236.480000
   3132   3133     1   0.14647 272713.120000
   3132   3136     1   0.14647 272713.120000
   3132   3139     1   0.14647 272713.120000
   3133   3145     1   0.15375 251793.120000
   3136   3148     1   0.15375 251793.120000
   3139   3142     1   0.15375 251793.120000
   3142   3151     1   0.15375 251793.120000
   3145   3157     1   0.15375 251793.120000
   3148   3154     1   0.15375 251793.120000
   3151   3160     1   0.14316 258236.480000
   3154   6536     1   0.14316 258236.480000
   3157   6567     1   0.14316 258236.480000
   3161   3162     1   0.14647 272713.120000
   3161   3165     1   0.14647 272713.120000
   3161   3168     1   0.14647 272713.120000
   3162   3174     1   0.15375 251793.120000
   3165   3177     1   0.15375 251793.120000
   3168   3171     1   0.15375 251793.120000
   3171   3180     1   0.15375 251793.120000
   3174   3186     1   0.15375 251793.120000
   3177   3183     1   0.15375 251793.120000
   3180   3189     1   0.14316 258236.480000
   3183   6598     1   0.14316 258236.480000
   3186   6629     1   0.14316 258236.480000
   3190   3191     1   0.14647 272713.120000
   3190   3194     1   0.14647 272713.120000
   3190   3197     1   0.14647 272713.120000
   3191   3203     1   0.15375 251793.120000
   3194   3206     1   0.15375 251793.120000
   3197   3200     1   0.15375 251793.120000
   3200   3209     1   0.15375 251793.120000
   3203   3215     1   0.15375 251793.120000
   3206   3212     1   0.15375 251793.120000
   3209   3218     1   0.14316 258236.480000
   3212   6660     1   0.14316 258236.480000
   3215   6691     1   0.14316 258236.480000
   3219   3220     1   0.14647 272713.120000
   3219   3223     1   0.14647 272713.120000
   3219   3226     1   0.14647 272713.120000
   3220   3232     1   0.15375 251793.120000
   3223   3235     1   0.15375 251793.120000
   3226   3229     1   0.15375 251793.120000
   3229   3238     1   0.15375 251793.120000
   3232   3244     1   0.15375 251793.120000
   3235   3241     1   0.15375 251793.120000
   3238   3247     1   0.14316 258236.480000
   3241   6722     1   0.14316 258236.480000
   3244   6753     1   0.14316 258236.480000
   3248   3249     1   0.14647 272713.120000
   3248   3252     1   0.14647 272713.120000
   3248   3255     1   0.14647 272713.120000
   3249   3261     1   0.15375 251793.120000
   3252   3264     1   0.15375 251793.120000
   3255   3258     1   0.15375 251793.120000
   3258   3267     1   0.15375 251793.120000
   3261   3273     1   0.15375 251793.120000
   3264   3270     1   0.15375 251793.120000
   3267   3276     1   0.14316 258236.480000
   3270   6784     1   0.14316 258236.480000
   3273   6815     1   0.14316 258236.480000
   3277   3278     1   0.14647 272713.120000
   3277   3281     1   0.14647 272713.120000
   3277   3284     1   0.14647 272713.120000
   3278   3290     1   0.15375 251793.120000
   3281   3293     1   0.15375 251793.120000
   3284   3287     1   0.15375 251793.120000
   3287   3296     1   0.15375 251793.120000
   3290   3302     1   0.15375 251793.120000
   3293   3299     1   0.15375 251793.120000
   3296   3305     1   0.14316 258236.480000
   3299   6846     1   0.14316 258236.480000
   3302   6877     1   0.14316 258236.480000
   3306   3307     1   0.14647 272713.120000
   3306   3310     1   0.14647 272713.120000
   3306   3313     1   0.14647 272713.120000
   3307   3319     1   0.15375 251793.120000
   3310   3322     1   0.15375 251793.120000
   3313   3316     1   0.15375 251793.120000
   3316   3325     1   0.15375 251793.120000
   3319   3331     1   0.15375 251793.120000
   3322   3328     1   0.15375 251793.120000
   3325   3334     1   0.14316 258236.480000
   3328   6908     1   0.14316 258236.480000
   3331   6939     1   0.14316 258236.480000
   3335   3336     1   0.14647 272713.120000
   3335   3339     1   0.14647 272713.120000
   3335   3342     1   0.14647 272713.120000
   3336   3348     1   0.15375 251793.120000
   3339   3351     1   0.15375 251793.120000
   3342   3345     1   0.15375 251793.120000
   3345   3354     1   0.15375 251793.120000
   3348   3360     1   0.15375 251793.120000
   3351   3357     1   0.15375 251793.120000
   3354   3363     1   0.14316 258236.480000
   3357   6970     1   0.14316 258236.480000
   3360   7001     1   0.14316 258236.480000
   3364   3365     1   0.14647 272713.120000
   3364   3368     1   0.14647 272713.120000
   3364   3371     1   0.14647 272713.120000
   3365   3377     1   0.15375 251793.120000
   3368   3380     1   0.15375 251793.120000
   3371   3374     1   0.15375 251793.120000
   3374   3383     1   0.15375 251793.120000
   3377   3389     1   0.15375 251793.120000
   3380   3386     1   0.15375 251793.120000
   3383   3392     1   0.14316 258236.480000
   3386   7032     1   0.14316 258236.480000
   3389   7063     1   0.14316 258236.480000
   3393   3394     1   0.14647 272713.120000
   3393   3397     1   0.14647 272713.120000
   3393   3400     1   0.14647 272713.120000
   3394   3406     1   0.15375 251793.120000
   3397   3409     1   0.15375 251793.120000
   3400   3403     1   0.15375 251793.120000
   3403   3412     1   0.15375 251793.120000
   3406   3418     1   0.15375 251793.120000
   3409   3415     1   0.15375 251793.120000
   3412   3421     1   0.14316 258236.480000
   3415   7094     1   0.14316 258236.480000
   3418   7125     1   0.14316 258236.480000
   3422   3423     1   0.14647 272713.120000
   3422   3426     1   0.14647 272713.120000
   3422   3429     1   0.14647 272713.120000
   3423   3435     1   0.15375 251793.120000
   3426   3438     1   0.15375 251793.120000
   3429   3432     1   0.15375 251793.120000
   3432   3441     1   0.15375 251793.120000
   3435   3447     1   0.15375 251793.120000
   3438   3444     1   0.15375 251793.120000
   3441   3450     1   0.14316 258236.480000
   3444   7156     1   0.14316 258236.480000
   3447   7187     1   0.14316 258236.480000
   3451   3452     1   0.14647 272713.120000
   3451   3455     1   0.14647 272713.120000
   3451   3458     1   0.14647 272713.120000
   3452   3464     1   0.15375 251793.120000
   3455   3467     1   0.15375 251793.120000
   3458   3461     1   0.15375 251793.120000
   3461   3470     1   0.15375 251793.120000
   3464   3476     1   0.15375 251793.120000
   3467   3473     1   0.15375 251793.120000
   3470   3479     1   0.14316 258236.480000
   3473   7218     1   0.14316 258236.480000
   3476   7249     1   0.14316 258236.480000
   3480   3481     1   0.14647 272713.120000
   3480   3484     1   0.14647 272713.120000
   3480   3487     1   0.14647 272713.120000
   3481   3493     1   0.15375 251793.120000
   3484   3496     1   0.15375 251793.120000
   3487   3490     1   0.15375 251793.120000
   3490   3499     1   0.15375 251793.120000
   3493   3505     1   0.15375 251793.120000
   3496   3502     1   0.15375 251793.120000
   3499   3508     1   0.14316 258236.480000
   3502   7280     1   0.14316 258236.480000
   3505   7311     1   0.14316 258236.480000
   3509   3510     1   0.14647 272713.120000
   3509   3513     1   0.14647 272713.120000
   3509   3516     1   0.14647 272713.120000
   3510   3522     1   0.15375 251793.120000
   3513   3525     1   0.15375 251793.120000
   3516   3519     1   0.15375 251793.120000
   3519   3528     1   0.15375 251793.120000
   3522   3534     1   0.15375 251793.120000
   3525   3531     1   0.15375 251793.120000
   3528   3537     1   0.14316 258236.480000
   3531   7342     1   0.14316 258236.480000
   3534   7373     1   0.14316 258236.480000
   3538   3539     1   0.14647 272713.120000
   3538   3542     1   0.14647 272713.120000
   3538   3545     1   0.14647 272713.120000
   3539   3551     1   0.15375 251793.120000
   3542   3554     1   0.15375 251793.120000
   3545   3548     1   0.15375 251793.120000
   3548   3557     1   0.15375 251793.120000
   3551   3563     1   0.15375 251793.120000
   3554   3560     1   0.15375 251793.120000
   3557   3566     1   0.14316 258236.480000
   3560   7404     1   0.14316 258236.480000
   3563   7435     1   0.14316 258236.480000
   3567   3568     1   0.14647 272713.120000
   3567   3571     1   0.14647 272713.120000
   3567   3574     1   0.14647 272713.120000
   3568   3580     1   0.15375 251793.120000
   3571   3583     1   0.15375 251793.120000
   3574   3577     1   0.15375 251793.120000
   3577   3586     1   0.15375 251793.120000
   3580   3592     1   0.15375 251793.120000
   3583   3589     1   0.15375 251793.120000
   3586   3595     1   0.14316 258236.480000
   3589   7466     1   0.14316 258236.480000
   3592   7497     1   0.14316 258236.480000
   3596   3597     1   0.14647 272713.120000
   3596   3600     1   0.14647 272713.120000
   3596   3603     1   0.14647 272713.120000
   3597   3609     1   0.15375 251793.120000
   3600   3612     1   0.15375 251793.120000
   3603   3606     1   0.15375 251793.120000
   3606   3615     1   0.15375 251793.120000
   3609   3621     1   0.15375 251793.120000
   3612   3618     1   0.15375 251793.120000
   3615   3624     1   0.14316 258236.480000
   3618   7528     1   0.14316 258236.480000
   3621   7559     1   0.14316 258236.480000
   3625   3626     1   0.14647 272713.120000
   3625   3629     1   0.14647 272713.120000
   3625   3632     1   0.14647 272713.120000
   3626   3638     1   0.15375 251793.120000
   3629   3641     1   0.15375 251793.120000
   3632   3635     1   0.15375 251793.120000
   3635   3644     1   0.15375 251793.120000
   3638   3650     1   0.15375 251793.120000
   3641   3647     1   0.15375 251793.120000
   3644   3653     1   0.14316 258236.480000
   3647   7590     1   0.14316 258236.480000
   3650   7621     1   0.14316 258236.480000
   3654   3657     1   0.15375 251793.120000
   3654   3684     1   0.14316 258236.480000
   3657   3660     1   0.15375 251793.120000
   3660   3663     1   0.14647 272713.120000
   3663   3664     1   0.14647 272713.120000
   3663   3674     1   0.14647 272713.120000
   3664   3667     1   0.15375 251793.120000
   3667   3670     1   0.15241 261918.400000
   3670   3671     1   0.12183 533627.360000
   3670   3672     1   0.13513 334803.680000
   3674   3677     1   0.15375 251793.120000
   3677   3680     1   0.15241 261918.400000
   3680   3681     1   0.12183 533627.360000
   3680   3682     1   0.13513 334803.680000
   3685   3688     1   0.15375 251793.120000
   3685   3715     1   0.14316 258236.480000
   3688   3691     1   0.15375 251793.120000
   3691   3694     1   0.14647 272713.120000
   3694   3695     1   0.14647 272713.120000
   3694   3705     1   0.14647 272713.120000
   3695   3698     1   0.15375 251793.120000
   3698   3701     1   0.15241 261918.400000
   3701   3702     1   0.12183 533627.360000
   3701   3703     1   0.13513 334803.680000
   3705   3708     1   0.15375 251793.120000
   3708   3711     1   0.15241 261918.400000
   3711   3712     1   0.12183 533627.360000
   3711   3713     1   0.13513 334803.680000
   3716   3719     1   0.15375 251793.120000
   3716   3746     1   0.14316 258236.480000
   3719   3722     1   0.15375 251793.120000
   3722   3725     1   0.14647 272713.120000
   3725   3726     1   0.14647 272713.120000
   3725   3736     1   0.14647 272713.120000
   3726   3729     1   0.15375 251793.120000
   3729   3732     1   0.15241 261918.400000
   3732   3733     1   0.12183 533627.360000
   3732   3734     1   0.13513 334803.680000
   3736   3739     1   0.15375 251793.120000
   3739   3742     1   0.15241 261918.400000
   3742   3743     1   0.12183 533627.360000
   3742   3744     1   0.13513 334803.680000
   3747   3750     1   0.15375 251793.120000
   3747   3777     1   0.14316 258236.480000
   3750   3753     1   0.15375 251793.120000
   3753   3756     1   0.14647 272713.120000
   3756   3757     1   0.14647 272713.120000
   3756   3767     1   0.14647 272713.120000
   3757   3760     1   0.15375 251793.120000
   3760   3763     1   0.15241 261918.400000
   3763   3764     1   0.12183 533627.360000
   3763   3765     1   0.13513 334803.680000
   3767   3770     1   0.15375 251793.120000
   3770   3773     1   0.15241 261918.400000
   3773   3774     1   0.12183 533627.360000
   3773   3775     1   0.13513 334803.680000
   3778   3781     1   0.15375 251793.120000
   3778   3808     1   0.14316 258236.480000
   3781   3784     1   0.15375 251793.120000
   3784   3787     1   0.14647 272713.120000
   3787   3788     1   0.14647 272713.120000
   3787   3798     1   0.14647 272713.120000
   3788   3791     1   0.15375 251793.120000
   3791   3794     1   0.15241 261918.400000
   3794   3795     1   0.12183 533627.360000
   3794   3796     1   0.13513 334803.680000
   3798   3801     1   0.15375 251793.120000
   3801   3804     1   0.15241 261918.400000
   3804   3805     1   0.12183 533627.360000
   3804   3806     1   0.13513 334803.680000
   3809   3812     1   0.15375 251793.120000
   3809   3839     1   0.14316 258236.480000
   3812   3815     1   0.15375 251793.120000
   3815   3818     1   0.14647 272713.120000
   3818   3819     1   0.14647 272713.120000
   3818   3829     1   0.14647 272713.120000
   3819   3822     1   0.15375 251793.120000
   3822   3825     1   0.15241 261918.400000
   3825   3826     1   0.12183 533627.360000
   3825   3827     1   0.13513 334803.680000
   3829   3832     1   0.15375 251793.120000
   3832   3835     1   0.15241 261918.400000
   3835   3836     1   0.12183 533627.360000
   3835   3837     1   0.13513 334803.680000
   3840   3843     1   0.15375 251793.120000
   3840   3870     1   0.14316 258236.480000
   3843   3846     1   0.15375 251793.120000
   3846   3849     1   0.14647 272713.120000
   3849   3850     1   0.14647 272713.120000
   3849   3860     1   0.14647 272713.120000
   3850   3853     1   0.15375 251793.120000
   3853   3856     1   0.15241 261918.400000
   3856   3857     1   0.12183 533627.360000
   3856   3858     1   0.13513 334803.680000
   3860   3863     1   0.15375 251793.120000
   3863   3866     1   0.15241 261918.400000
   3866   3867     1   0.12183 533627.360000
   3866   3868     1   0.13513 334803.680000
   3871   3874     1   0.15375 251793.120000
   3871   3901     1   0.14316 258236.480000
   3874   3877     1   0.15375 251793.120000
   3877   3880     1   0.14647 272713.120000
   3880   3881     1   0.14647 272713.120000
   3880   3891     1   0.14647 272713.120000
   3881   3884     1   0.15375 251793.120000
   3884   3887     1   0.15241 261918.400000
   3887   3888     1   0.12183 533627.360000
   3887   3889     1   0.13513 334803.680000
   3891   3894     1   0.15375 251793.120000
   3894   3897     1   0.15241 261918.400000
   3897   3898     1   0.12183 533627.360000
   3897   3899     1   0.13513 334803.680000
   3902   3905     1   0.15375 251793.120000
   3902   3932     1   0.14316 258236.480000
   3905   3908     1   0.15375 251793.120000
   3908   3911     1   0.14647 272713.120000
   3911   3912     1   0.14647 272713.120000
   3911   3922     1   0.14647 272713.120000
   3912   3915     1   0.15375 251793.120000
   3915   3918     1   0.15241 261918.400000
   3918   3919     1   0.12183 533627.360000
   3918   3920     1   0.13513 334803.680000
   3922   3925     1   0.15375 251793.120000
   3925   3928     1   0.15241 261918.400000
   3928   3929     1   0.12183 533627.360000
   3928   3930     1   0.13513 334803.680000
   3933   3936     1   0.15375 251793.120000
   3933   3963     1   0.14316 258236.480000
   3936   3939     1   0.15375 251793.120000
   3939   3942     1   0.14647 272713.120000
   3942   3943     1   0.14647 272713.120000
   3942   3953     1   0.14647 272713.120000
   3943   3946     1   0.15375 251793.120000
   3946   3949     1   0.15241 261918.400000
   3949   3950     1   0.12183 533627.360000
   3949   3951     1   0.13513 334803.680000
   3953   3956     1   0.15375 251793.120000
   3956   3959     1   0.15241 261918.400000
   3959   3960     1   0.12183 533627.360000
   3959   3961     1   0.13513 334803.680000
   3964   3967     1   0.15375 251793.120000
   3964   3994     1   0.14316 258236.480000
   3967   3970     1   0.15375 251793.120000
   3970   3973     1   0.14647 272713.120000
   3973   3974     1   0.14647 272713.120000
   3973   3984     1   0.14647 272713.120000
   3974   3977     1   0.15375 251793.120000
   3977   3980     1   0.15241 261918.400000
   3980   3981     1   0.12183 533627.360000
   3980   3982     1   0.13513 334803.680000
   3984   3987     1   0.15375 251793.120000
   3987   3990     1   0.15241 261918.400000
   3990   3991     1   0.12183 533627.360000
   3990   3992     1   0.13513 334803.680000
   3995   3998     1   0.15375 251793.120000
   3995   4025     1   0.14316 258236.480000
   3998   4001     1   0.15375 251793.120000
   4001   4004     1   0.14647 272713.120000
   4004   4005     1   0.14647 272713.120000
   4004   4015     1   0.14647 272713.120000
   4005   4008     1   0.15375 251793.120000
   4008   4011     1   0.15241 261918.400000
   4011   4012     1   0.12183 533627.360000
   4011   4013     1   0.13513 334803.680000
   4015   4018     1   0.15375 251793.120000
   4018   4021     1   0.15241 261918.400000
   4021   4022     1   0.12183 533627.360000
   4021   4023     1   0.13513 334803.680000
   4026   4029     1   0.15375 251793.120000
   4026   4056     1   0.14316 258236.480000
   4029   4032     1   0.15375 251793.120000
   4032   4035     1   0.14647 272713.120000
   4035   4036     1   0.14647 272713.120000
   4035   4046     1   0.14647 272713.120000
   4036   4039     1   0.15375 251793.120000
   4039   4042     1   0.15241 261918.400000
   4042   4043     1   0.12183 533627.360000
   4042   4044     1   0.13513 334803.680000
   4046   4049     1   0.15375 251793.120000
   4049   4052     1   0.15241 261918.400000
   4052   4053     1   0.12183 533627.360000
   4052   4054     1   0.13513 334803.680000
   4057   4060     1   0.15375 251793.120000
   4057   4087     1   0.14316 258236.480000
   4060   4063     1   0.15375 251793.120000
   4063   4066     1   0.14647 272713.120000
   4066   4067     1   0.14647 272713.120000
   4066   4077     1   0.14647 272713.120000
   4067   4070     1   0.15375 251793.120000
   4070   4073     1   0.15241 261918.400000
   4073   4074     1   0.12183 533627.360000
   4073   4075     1   0.13513 334803.680000
   4077   4080     1   0.15375 251793.120000
   4080   4083     1   0.15241 261918.400000
   4083   4084     1   0.12183 533627.360000
   4083   4085     1   0.13513 334803.680000
   4088   4091     1   0.15375 251793.120000
   4088   4118     1   0.14316 258236.480000
   4091   4094     1   0.15375 251793.120000
   4094   4097     1   0.14647 272713.120000
   4097   4098     1   0.14647 272713.120000
   4097   4108     1   0.14647 272713.120000
   4098   4101     1   0.15375 251793.120000
   4101   4104     1   0.15241 261918.400000
   4104   4105     1   0.12183 533627.360000
   4104   4106     1   0.13513 334803.680000
   4108   4111     1   0.15375 251793.120000
   4111   4114     1   0.15241 261918.400000
   4114   4115     1   0.12183 533627.360000
   4114   4116     1   0.13513 334803.680000
   4119   4122     1   0.15375 251793.120000
   4119   4149     1   0.14316 258236.480000
   4122   4125     1   0.15375 251793.120000
   4125   4128     1   0.14647 272713.120000
   4128   4129     1   0.14647 272713.120000
   4128   4139     1   0.14647 272713.120000
   4129   4132     1   0.15375 251793.120000
   4132   4135     1   0.15241 261918.400000
   4135   4136     1   0.12183 533627.360000
   4135   4137     1   0.13513 334803.680000
   4139   4142     1   0.15375 251793.120000
   4142   4145     1   0.15241 261918.400000
   4145   4146     1   0.12183 533627.360000
   4145   4147     1   0.13513 334803.680000
   4150   4153     1   0.15375 251793.120000
   4150   4180     1   0.14316 258236.480000
   4153   4156     1   0.15375 251793.120000
   4156   4159     1   0.14647 272713.120000
   4159   4160     1   0.14647 272713.120000
   4159   4170     1   0.14647 272713.120000
   4160   4163     1   0.15375 251793.120000
   4163   4166     1   0.15241 261918.400000
   4166   4167     1   0.12183 533627.360000
   4166   4168     1   0.13513 334803.680000
   4170   4173     1   0.15375 251793.120000
   4173   4176     1   0.15241 261918.400000
   4176   4177     1   0.12183 533627.360000
   4176   4178     1   0.13513 334803.680000
   4181   4184     1   0.15375 251793.120000
   4181   4211     1   0.14316 258236.480000
   4184   4187     1   0.15375 251793.120000
   4187   4190     1   0.14647 272713.120000
   4190   4191     1   0.14647 272713.120000
   4190   4201     1   0.14647 272713.120000
   4191   4194     1   0.15375 251793.120000
   4194   4197     1   0.15241 261918.400000
   4197   4198     1   0.12183 533627.360000
   4197   4199     1   0.13513 334803.680000
   4201   4204     1   0.15375 251793.120000
   4204   4207     1   0.15241 261918.400000
   4207   4208     1   0.12183 533627.360000
   4207   4209     1   0.13513 334803.680000
   4212   4215     1   0.15375 251793.120000
   4212   4242     1   0.14316 258236.480000
   4215   4218     1   0.15375 251793.120000
   4218   4221     1   0.14647 272713.120000
   4221   4222     1   0.14647 272713.120000
   4221   4232     1   0.14647 272713.120000
   4222   4225     1   0.15375 251793.120000
   4225   4228     1   0.15241 261918.400000
   4228   4229     1   0.12183 533627.360000
   4228   4230     1   0.13513 334803.680000
   4232   4235     1   0.15375 251793.120000
   4235   4238     1   0.15241 261918.400000
   4238   4239     1   0.12183 533627.360000
   4238   4240     1   0.13513 334803.680000
   4243   4246     1   0.15375 251793.120000
   4243   4273     1   0.14316 258236.480000
   4246   4249     1   0.15375 251793.120000
   4249   4252     1   0.14647 272713.120000
   4252   4253     1   0.14647 272713.120000
   4252   4263     1   0.14647 272713.120000
   4253   4256     1   0.15375 251793.120000
   4256   4259     1   0.15241 261918.400000
   4259   4260     1   0.12183 533627.360000
   4259   4261     1   0.13513 334803.680000
   4263   4266     1   0.15375 251793.120000
   4266   4269     1   0.15241 261918.400000
   4269   4270     1   0.12183 533627.360000
   4269   4271     1   0.13513 334803.680000
   4274   4277     1   0.15375 251793.120000
   4274   4304     1   0.14316 258236.480000
   4277   4280     1   0.15375 251793.120000
   4280   4283     1   0.14647 272713.120000
   4283   4284     1   0.14647 272713.120000
   4283   4294     1   0.14647 272713.120000
   4284   4287     1   0.15375 251793.120000
   4287   4290     1   0.15241 261918.400000
   4290   4291     1   0.12183 533627.360000
   4290   4292     1   0.13513 334803.680000
   4294   4297     1   0.15375 251793.120000
   4297   4300     1   0.15241 261918.400000
   4300   4301     1   0.12183 533627.360000
   4300   4302     1   0.13513 334803.680000
   4305   4308     1   0.15375 251793.120000
   4305   4335     1   0.14316 258236.480000
   4308   4311     1   0.15375 251793.120000
   4311   4314     1   0.14647 272713.120000
   4314   4315     1   0.14647 272713.120000
   4314   4325     1   0.14647 272713.120000
   4315   4318     1   0.15375 251793.120000
   4318   4321     1   0.15241 261918.400000
   4321   4322     1   0.12183 533627.360000
   4321   4323     1   0.13513 334803.680000
   4325   4328     1   0.15375 251793.120000
   4328   4331     1   0.15241 261918.400000
   4331   4332     1   0.12183 533627.360000
   4331   4333     1   0.13513 334803.680000
   4336   4339     1   0.15375 251793.120000
   4336   4366     1   0.14316 258236.480000
   4339   4342     1   0.15375 251793.120000
   4342   4345     1   0.14647 272713.120000
   4345   4346     1   0.14647 272713.120000
   4345   4356     1   0.14647 272713.120000
   4346   4349     1   0.15375 251793.120000
   4349   4352     1   0.15241 261918.400000
   4352   4353     1   0.12183 533627.360000
   4352   4354     1   0.13513 334803.680000
   4356   4359     1   0.15375 251793.120000
   4359   4362     1   0.15241 261918.400000
   4362   4363     1   0.12183 533627.360000
   4362   4364     1   0.13513 334803.680000
   4367   4370     1   0.15375 251793.120000
   4367   4397     1   0.14316 258236.480000
   4370   4373     1   0.15375 251793.120000
   4373   4376     1   0.14647 272713.120000
   4376   4377     1   0.14647 272713.120000
   4376   4387     1   0.14647 272713.120000
   4377   4380     1   0.15375 251793.120000
   4380   4383     1   0.15241 261918.400000
   4383   4384     1   0.12183 533627.360000
   4383   4385     1   0.13513 334803.680000
   4387   4390     1   0.15375 251793.120000
   4390   4393     1   0.15241 261918.400000
   4393   4394     1   0.12183 533627.360000
   4393   4395     1   0.13513 334803.680000
   4398   4401     1   0.15375 251793.120000
   4398   4428     1   0.14316 258236.480000
   4401   4404     1   0.15375 251793.120000
   4404   4407     1   0.14647 272713.120000
   4407   4408     1   0.14647 272713.120000
   4407   4418     1   0.14647 272713.120000
   4408   4411     1   0.15375 251793.120000
   4411   4414     1   0.15241 261918.400000
   4414   4415     1   0.12183 533627.360000
   4414   4416     1   0.13513 334803.680000
   4418   4421     1   0.15375 251793.120000
   4421   4424     1   0.15241 261918.400000
   4424   4425     1   0.12183 533627.360000
   4424   4426     1   0.13513 334803.680000
   4429   4432     1   0.15375 251793.120000
   4429   4459     1   0.14316 258236.480000
   4432   4435     1   0.15375 251793.120000
   4435   4438     1   0.14647 272713.120000
   4438   4439     1   0.14647 272713.120000
   4438   4449     1   0.14647 272713.120000
   4439   4442     1   0.15375 251793.120000
   4442   4445     1   0.15241 261918.400000
   4445   4446     1   0.12183 533627.360000
   4445   4447     1   0.13513 334803.680000
   4449   4452     1   0.15375 251793.120000
   4452   4455     1   0.15241 261918.400000
   4455   4456     1   0.12183 533627.360000
   4455   4457     1   0.13513 334803.680000
   4460   4463     1   0.15375 251793.120000
   4460   4490     1   0.14316 258236.480000
   4463   4466     1   0.15375 251793.120000
   4466   4469     1   0.14647 272713.120000
   4469   4470     1   0.14647 272713.120000
   4469   4480     1   0.14647 272713.120000
   4470   4473     1   0.15375 251793.120000
   4473   4476     1   0.15241 261918.400000
   4476   4477     1   0.12183 533627.360000
   4476   4478     1   0.13513 334803.680000
   4480   4483     1   0.15375 251793.120000
   4483   4486     1   0.15241 261918.400000
   4486   4487     1   0.12183 533627.360000
   4486   4488     1   0.13513 334803.680000
   4491   4494     1   0.15375 251793.120000
   4491   4521     1   0.14316 258236.480000
   4494   4497     1   0.15375 251793.120000
   4497   4500     1   0.14647 272713.120000
   4500   4501     1   0.14647 272713.120000
   4500   4511     1   0.14647 272713.120000
   4501   4504     1   0.15375 251793.120000
   4504   4507     1   0.15241 261918.400000
   4507   4508     1   0.12183 533627.360000
   4507   4509     1   0.13513 334803.680000
   4511   4514     1   0.15375 251793.120000
   4514   4517     1   0.15241 261918.400000
   4517   4518     1   0.12183 533627.360000
   4517   4519     1   0.13513 334803.680000
   4522   4525     1   0.15375 251793.120000
   4522   4552     1   0.14316 258236.480000
   4525   4528     1   0.15375 251793.120000
   4528   4531     1   0.14647 272713.120000
   4531   4532     1   0.14647 272713.120000
   4531   4542     1   0.14647 272713.120000
   4532   4535     1   0.15375 251793.120000
   4535   4538     1   0.15241 261918.400000
   4538   4539     1   0.12183 533627.360000
   4538   4540     1   0.13513 334803.680000
   4542   4545     1   0.15375 251793.120000
   4545   4548     1   0.15241 261918.400000
   4548   4549     1   0.12183 533627.360000
   4548   4550     1   0.13513 334803.680000
   4553   4556     1   0.15375 251793.120000
   4553   4583     1   0.14316 258236.480000
   4556   4559     1   0.15375 251793.120000
   4559   4562     1   0.14647 272713.120000
   4562   4563     1   0.14647 272713.120000
   4562   4573     1   0.14647 272713.120000
   4563   4566     1   0.15375 251793.120000
   4566   4569     1   0.15241 261918.400000
   4569   4570     1   0.12183 533627.360000
   4569   4571     1   0.13513 334803.680000
   4573   4576     1   0.15375 251793.120000
   4576   4579     1   0.15241 261918.400000
   4579   4580     1   0.12183 533627.360000
   4579   4581     1   0.13513 334803.680000
   4584   4587     1   0.15375 251793.120000
   4584   4614     1   0.14316 258236.480000
   4587   4590     1   0.15375 251793.120000
   4590   4593     1   0.14647 272713.120000
   4593   4594     1   0.14647 272713.120000
   4593   4604     1   0.14647 272713.120000
   4594   4597     1   0.15375 251793.120000
   4597   4600     1   0.15241 261918.400000
   4600   4601     1   0.12183 533627.360000
   4600   4602     1   0.13513 334803.680000
   4604   4607     1   0.15375 251793.120000
   4607   4610     1   0.15241 261918.400000
   4610   4611     1   0.12183 533627.360000
   4610   4612     1   0.13513 334803.680000
   4615   4618     1   0.15375 251793.120000
   4615   4645     1   0.14316 258236.480000
   4618   4621     1   0.15375 251793.120000
   4621   4624     1   0.14647 272713.120000
   4624   4625     1   0.14647 272713.120000
   4624   4635     1   0.14647 272713.120000
   4625   4628     1   0.15375 251793.120000
   4628   4631     1   0.15241 261918.400000
   4631   4632     1   0.12183 533627.360000
   4631   4633     1   0.13513 334803.680000
   4635   4638     1   0.15375 251793.120000
   4638   4641     1   0.15241 261918.400000
   4641   4642     1   0.12183 533627.360000
   4641   4643     1   0.13513 334803.680000
   4646   4649     1   0.15375 251793.120000
   4646   4676     1   0.14316 258236.480000
   4649   4652     1   0.15375 251793.120000
   4652   4655     1   0.14647 272713.120000
   4655   4656     1   0.14647 272713.120000
   4655   4666     1   0.14647 272713.120000
   4656   4659     1   0.15375 251793.120000
   4659   4662     1   0.15241 261918.400000
   4662   4663     1   0.12183 533627.360000
   4662   4664     1   0.13513 334803.680000
   4666   4669     1   0.15375 251793.120000
   4669   4672     1   0.15241 261918.400000
   4672   4673     1   0.12183 533627.360000
   4672   4674     1   0.13513 334803.680000
   4677   4680     1   0.15375 251793.120000
   4677   4707     1   0.14316 258236.480000
   4680   4683     1   0.15375 251793.120000
   4683   4686     1   0.14647 272713.120000
   4686   4687     1   0.14647 272713.120000
   4686   4697     1   0.14647 272713.120000
   4687   4690     1   0.15375 251793.120000
   4690   4693     1   0.15241 261918.400000
   4693   4694     1   0.12183 533627.360000
   4693   4695     1   0.13513 334803.680000
   4697   4700     1   0.15375 251793.120000
   4700   4703     1   0.15241 261918.400000
   4703   4704     1   0.12183 533627.360000
   4703   4705     1   0.13513 334803.680000
   4708   4711     1   0.15375 251793.120000
   4708   4738     1   0.14316 258236.480000
   4711   4714     1   0.15375 251793.120000
   4714   4717     1   0.14647 272713.120000
   4717   4718     1   0.14647 272713.120000
   4717   4728     1   0.14647 272713.120000
   4718   4721     1   0.15375 251793.120000
   4721   4724     1   0.15241 261918.400000
   4724   4725     1   0.12183 533627.360000
   4724   4726     1   0.13513 334803.680000
   4728   4731     1   0.15375 251793.120000
   4731   4734     1   0.15241 261918.400000
   4734   4735     1   0.12183 533627.360000
   4734   4736     1   0.13513 334803.680000
   4739   4742     1   0.15375 251793.120000
   4739   4769     1   0.14316 258236.480000
   4742   4745     1   0.15375 251793.120000
   4745   4748     1   0.14647 272713.120000
   4748   4749     1   0.14647 272713.120000
   4748   4759     1   0.14647 272713.120000
   4749   4752     1   0.15375 251793.120000
   4752   4755     1   0.15241 261918.400000
   4755   4756     1   0.12183 533627.360000
   4755   4757     1   0.13513 334803.680000
   4759   4762     1   0.15375 251793.120000
   4762   4765     1   0.15241 261918.400000
   4765   4766     1   0.12183 533627.360000
   4765   4767     1   0.13513 334803.680000
   4770   4773     1   0.15375 251793.120000
   4770   4800     1   0.14316 258236.480000
   4773   4776     1   0.15375 251793.120000
   4776   4779     1   0.14647 272713.120000
   4779   4780     1   0.14647 272713.120000
   4779   4790     1   0.14647 272713.120000
   4780   4783     1   0.15375 251793.120000
   4783   4786     1   0.15241 261918.400000
   4786   4787     1   0.12183 533627.360000
   4786   4788     1   0.13513 334803.680000
   4790   4793     1   0.15375 251793.120000
   4793   4796     1   0.15241 261918.400000
   4796   4797     1   0.12183 533627.360000
   4796   4798     1   0.13513 334803.680000
   4801   4804     1   0.15375 251793.120000
   4801   4831     1   0.14316 258236.480000
   4804   4807     1   0.15375 251793.120000
   4807   4810     1   0.14647 272713.120000
   4810   4811     1   0.14647 272713.120000
   4810   4821     1   0.14647 272713.120000
   4811   4814     1   0.15375 251793.120000
   4814   4817     1   0.15241 261918.400000
   4817   4818     1   0.12183 533627.360000
   4817   4819     1   0.13513 334803.680000
   4821   4824     1   0.15375 251793.120000
   4824   4827     1   0.15241 261918.400000
   4827   4828     1   0.12183 533627.360000
   4827   4829     1   0.13513 334803.680000
   4832   4835     1   0.15375 251793.120000
   4832   4862     1   0.14316 258236.480000
   4835   4838     1   0.15375 251793.120000
   4838   4841     1   0.14647 272713.120000
   4841   4842     1   0.14647 272713.120000
   4841   4852     1   0.14647 272713.120000
   4842   4845     1   0.15375 251793.120000
   4845   4848     1   0.15241 261918.400000
   4848   4849     1   0.12183 533627.360000
   4848   4850     1   0.13513 334803.680000
   4852   4855     1   0.15375 251793.120000
   4855   4858     1   0.15241 261918.400000
   4858   4859     1   0.12183 533627.360000
   4858   4860     1   0.13513 334803.680000
   4863   4866     1   0.15375 251793.120000
   4863   4893     1   0.14316 258236.480000
   4866   4869     1   0.15375 251793.120000
   4869   4872     1   0.14647 272713.120000
   4872   4873     1   0.14647 272713.120000
   4872   4883     1   0.14647 272713.120000
   4873   4876     1   0.15375 251793.120000
   4876   4879     1   0.15241 261918.400000
   4879   4880     1   0.12183 533627.360000
   4879   4881     1   0.13513 334803.680000
   4883   4886     1   0.15375 251793.120000
   4886   4889     1   0.15241 261918.400000
   4889   4890     1   0.12183 533627.360000
   4889   4891     1   0.13513 334803.680000
   4894   4897     1   0.15375 251793.120000
   4894   4924     1   0.14316 258236.480000
   4897   4900     1   0.15375 251793.120000
   4900   4903     1   0.14647 272713.120000
   4903   4904     1   0.14647 272713.120000
   4903   4914     1   0.14647 272713.120000
   4904   4907     1   0.15375 251793.120000
   4907   4910     1   0.15241 261918.400000
   4910   4911     1   0.12183 533627.360000
   4910   4912     1   0.13513 334803.680000
   4914   4917     1   0.15375 251793.120000
   4917   4920     1   0.15241 261918.400000
   4920   4921     1   0.12183 533627.360000
   4920   4922     1   0.13513 334803.680000
   4925   4928     1   0.15375 251793.120000
   4925   4955     1   0.14316 258236.480000
   4928   4931     1   0.15375 251793.120000
   4931   4934     1   0.14647 272713.120000
   4934   4935     1   0.14647 272713.120000
   4934   4945     1   0.14647 272713.120000
   4935   4938     1   0.15375 251793.120000
   4938   4941     1   0.15241 261918.400000
   4941   4942     1   0.12183 533627.360000
   4941   4943     1   0.13513 334803.680000
   4945   4948     1   0.15375 251793.120000
   4948   4951     1   0.15241 261918.400000
   4951   4952     1   0.12183 533627.360000
   4951   4953     1   0.13513 334803.680000
   4956   4959     1   0.15375 251793.120000
   4956   4986     1   0.14316 258236.480000
   4959   4962     1   0.15375 251793.120000
   4962   4965     1   0.14647 272713.120000
   4965   4966     1   0.14647 272713.120000
   4965   4976     1   0.14647 272713.120000
   4966   4969     1   0.15375 251793.120000
   4969   4972     1   0.15241 261918.400000
   4972   4973     1   0.12183 533627.360000
   4972   4974     1   0.13513 334803.680000
   4976   4979     1   0.15375 251793.120000
   4979   4982     1   0.15241 261918.400000
   4982   4983     1   0.12183 533627.360000
   4982   4984     1   0.13513 334803.680000
   4987   4990     1   0.15375 251793.120000
   4987   5017     1   0.14316 258236.480000
   4990   4993     1   0.15375 251793.120000
   4993   4996     1   0.14647 272713.120000
   4996   4997     1   0.14647 272713.120000
   4996   5007     1   0.14647 272713.120000
   4997   5000     1   0.15375 251793.120000
   5000   5003     1   0.15241 261918.400000
   5003   5004     1   0.12183 533627.360000
   5003   5005     1   0.13513 334803.680000
   5007   5010     1   0.15375 251793.120000
   5010   5013     1   0.15241 261918.400000
   5013   5014     1   0.12183 533627.360000
   5013   5015     1   0.13513 334803.680000
   5018   5021     1   0.15375 251793.120000
   5018   5048     1   0.14316 258236.480000
   5021   5024     1   0.15375 251793.120000
   5024   5027     1   0.14647 272713.120000
   5027   5028     1   0.14647 272713.120000
   5027   5038     1   0.14647 272713.120000
   5028   5031     1   0.15375 251793.120000
   5031   5034     1   0.15241 261918.400000
   5034   5035     1   0.12183 533627.360000
   5034   5036     1   0.13513 334803.680000
   5038   5041     1   0.15375 251793.120000
   5041   5044     1   0.15241 261918.400000
   5044   5045     1   0.12183 533627.360000
   5044   5046     1   0.13513 334803.680000
   5049   5052     1   0.15375 251793.120000
   5049   5079     1   0.14316 258236.480000
   5052   5055     1   0.15375 251793.120000
   5055   5058     1   0.14647 272713.120000
   5058   5059     1   0.14647 272713.120000
   5058   5069     1   0.14647 272713.120000
   5059   5062     1   0.15375 251793.120000
   5062   5065     1   0.15241 261918.400000
   5065   5066     1   0.12183 533627.360000
   5065   5067     1   0.13513 334803.680000
   5069   5072     1   0.15375 251793.120000
   5072   5075     1   0.15241 261918.400000
   5075   5076     1   0.12183 533627.360000
   5075   5077     1   0.13513 334803.680000
   5080   5083     1   0.15375 251793.120000
   5080   5110     1   0.14316 258236.480000
   5083   5086     1   0.15375 251793.120000
   5086   5089     1   0.14647 272713.120000
   5089   5090     1   0.14647 272713.120000
   5089   5100     1   0.14647 272713.120000
   5090   5093     1   0.15375 251793.120000
   5093   5096     1   0.15241 261918.400000
   5096   5097     1   0.12183 533627.360000
   5096   5098     1   0.13513 334803.680000
   5100   5103     1   0.15375 251793.120000
   5103   5106     1   0.15241 261918.400000
   5106   5107     1   0.12183 533627.360000
   5106   5108     1   0.13513 334803.680000
   5111   5114     1   0.15375 251793.120000
   5111   5141     1   0.14316 258236.480000
   5114   5117     1   0.15375 251793.120000
   5117   5120     1   0.14647 272713.120000
   5120   5121     1   0.14647 272713.120000
   5120   5131     1   0.14647 272713.120000
   5121   5124     1   0.15375 251793.120000
   5124   5127     1   0.15241 261918.400000
   5127   5128     1   0.12183 533627.360000
   5127   5129     1   0.13513 334803.680000
   5131   5134     1   0.15375 251793.120000
   5134   5137     1   0.15241 261918.400000
   5137   5138     1   0.12183 533627.360000
   5137   5139     1   0.13513 334803.680000
   5142   5145     1   0.15375 251793.120000
   5142   5172     1   0.14316 258236.480000
   5145   5148     1   0.15375 251793.120000
   5148   5151     1   0.14647 272713.120000
   5151   5152     1   0.14647 272713.120000
   5151   5162     1   0.14647 272713.120000
   5152   5155     1   0.15375 251793.120000
   5155   5158     1   0.15241 261918.400000
   5158   5159     1   0.12183 533627.360000
   5158   5160     1   0.13513 334803.680000
   5162   5165     1   0.15375 251793.120000
   5165   5168     1   0.15241 261918.400000
   5168   5169     1   0.12183 533627.360000
   5168   5170     1   0.13513 334803.680000
   5173   5176     1   0.15375 251793.120000
   5173   5203     1   0.14316 258236.480000
   5176   5179     1   0.15375 251793.120000
   5179   5182     1   0.14647 272713.120000
   5182   5183     1   0.14647 272713.120000
   5182   5193     1   0.14647 272713.120000
   5183   5186     1   0.15375 251793.120000
   5186   5189     1   0.15241 261918.400000
   5189   5190     1   0.12183 533627.360000
   5189   5191     1   0.13513 334803.680000
   5193   5196     1   0.15375 251793.120000
   5196   5199     1   0.15241 261918.400000
   5199   5200     1   0.12183 533627.360000
   5199   5201     1   0.13513 334803.680000
   5204   5207     1   0.15375 251793.120000
   5204   5234     1   0.14316 258236.480000
   5207   5210     1   0.15375 251793.120000
   5210   5213     1   0.14647 272713.120000
   5213   5214     1   0.14647 272713.120000
   5213   5224     1   0.14647 272713.120000
   5214   5217     1   0.15375 251793.120000
   5217   5220     1   0.15241 261918.400000
   5220   5221     1   0.12183 533627.360000
   5220   5222     1   0.13513 334803.680000
   5224   5227     1   0.15375 251793.120000
   5227   5230     1   0.15241 261918.400000
   5230   5231     1   0.12183 533627.360000
   5230   5232     1   0.13513 334803.680000
   5235   5238     1   0.15375 251793.120000
   5235   5265     1   0.14316 258236.480000
   5238   5241     1   0.15375 251793.120000
   5241   5244     1   0.14647 272713.120000
   5244   5245     1   0.14647 272713.120000
   5244   5255     1   0.14647 272713.120000
   5245   5248     1   0.15375 251793.120000
   5248   5251     1   0.15241 261918.400000
   5251   5252     1   0.12183 533627.360000
   5251   5253     1   0.13513 334803.680000
   5255   5258     1   0.15375 251793.120000
   5258   5261     1   0.15241 261918.400000
   5261   5262     1   0.12183 533627.360000
   5261   5263     1   0.13513 334803.680000
   5266   5269     1   0.15375 251793.120000
   5266   5296     1   0.14316 258236.480000
   5269   5272     1   0.15375 251793.120000
   5272   5275     1   0.14647 272713.120000
   5275   5276     1   0.14647 272713.120000
   5275   5286     1   0.14647 272713.120000
   5276   5279     1   0.15375 251793.120000
   5279   5282     1   0.15241 261918.400000
   5282   5283     1   0.12183 533627.360000
   5282   5284     1   0.13513 334803.680000
   5286   5289     1   0.15375 251793.120000
   5289   5292     1   0.15241 261918.400000
   5292   5293     1   0.12183 533627.360000
   5292   5294     1   0.13513 334803.680000
   5297   5300     1   0.15375 251793.120000
   5297   5327     1   0.14316 258236.480000
   5300   5303     1   0.15375 251793.120000
   5303   5306     1   0.14647 272713.120000
   5306   5307     1   0.14647 272713.120000
   5306   5317     1   0.14647 272713.120000
   5307   5310     1   0.15375 251793.120000
   5310   5313     1   0.15241 261918.400000
   5313   5314     1   0.12183 533627.360000
   5313   5315     1   0.13513 334803.680000
   5317   5320     1   0.15375 251793.120000
   5320   5323     1   0.15241 261918.400000
   5323   5324     1   0.12183 533627.360000
   5323   5325     1   0.13513 334803.680000
   5328   5331     1   0.15375 251793.120000
   5328   5358     1   0.14316 258236.480000
   5331   5334     1   0.15375 251793.120000
   5334   5337     1   0.14647 272713.120000
   5337   5338     1   0.14647 272713.120000
   5337   5348     1   0.14647 272713.120000
   5338   5341     1   0.15375 251793.120000
   5341   5344     1   0.15241 261918.400000
   5344   5345     1   0.12183 533627.360000
   5344   5346     1   0.13513 334803.680000
   5348   5351     1   0.15375 251793.120000
   5351   5354     1   0.15241 261918.400000
   5354   5355     1   0.12183 533627.360000
   5354   5356     1   0.13513 334803.680000
   5359   5362     1   0.15375 251793.120000
   5359   5389     1   0.14316 258236.480000
   5362   5365     1   0.15375 251793.120000
   5365   5368     1   0.14647 272713.120000
   5368   5369     1   0.14647 272713.120000
   5368   5379     1   0.14647 272713.120000
   5369   5372     1   0.15375 251793.120000
   5372   5375     1   0.15241 261918.400000
   5375   5376     1   0.12183 533627.360000
   5375   5377     1   0.13513 334803.680000
   5379   5382     1   0.15375 251793.120000
   5382   5385     1   0.15241 261918.400000
   5385   5386     1   0.12183 533627.360000
   5385   5387     1   0.13513 334803.680000
   5390   5393     1   0.15375 251793.120000
   5390   5420     1   0.14316 258236.480000
   5393   5396     1   0.15375 251793.120000
   5396   5399     1   0.14647 272713.120000
   5399   5400     1   0.14647 272713.120000
   5399   5410     1   0.14647 272713.120000
   5400   5403     1   0.15375 251793.120000
   5403   5406     1   0.15241 261918.400000
   5406   5407     1   0.12183 533627.360000
   5406   5408     1   0.13513 334803.680000
   5410   5413     1   0.15375 251793.120000
   5413   5416     1   0.15241 261918.400000
   5416   5417     1   0.12183 533627.360000
   5416   5418     1   0.13513 334803.680000
   5421   5424     1   0.15375 251793.120000
   5421   5451     1   0.14316 258236.480000
   5424   5427     1   0.15375 251793.120000
   5427   5430     1   0.14647 272713.120000
   5430   5431     1   0.14647 272713.120000
   5430   5441     1   0.14647 272713.120000
   5431   5434     1   0.15375 251793.120000
   5434   5437     1   0.15241 261918.400000
   5437   5438     1   0.12183 533627.360000
   5437   5439     1   0.13513 334803.680000
   5441   5444     1   0.15375 251793.120000
   5444   5447     1   0.15241 261918.400000
   5447   5448     1   0.12183 533627.360000
   5447   5449     1   0.13513 334803.680000
   5452   5455     1   0.15375 251793.120000
   5452   5482     1   0.14316 258236.480000
   5455   5458     1   0.15375 251793.120000
   5458   5461     1   0.14647 272713.120000
   5461   5462     1   0.14647 272713.120000
   5461   5472     1   0.14647 272713.120000
   5462   5465     1   0.15375 251793.120000
   5465   5468     1   0.15241 261918.400000
   5468   5469     1   0.12183 533627.360000
   5468   5470     1   0.13513 334803.680000
   5472   5475     1   0.15375 251793.120000
   5475   5478     1   0.15241 261918.400000
   5478   5479     1   0.12183 533627.360000
   5478   5480     1   0.13513 334803.680000
   5483   5486     1   0.15375 251793.120000
   5483   5513     1   0.14316 258236.480000
   5486   5489     1   0.15375 251793.120000
   5489   5492     1   0.14647 272713.120000
   5492   5493     1   0.14647 272713.120000
   5492   5503     1   0.14647 272713.120000
   5493   5496     1   0.15375 251793.120000
   5496   5499     1   0.15241 261918.400000
   5499   5500     1   0.12183 533627.360000
   5499   5501     1   0.13513 334803.680000
   5503   5506     1   0.15375 251793.120000
   5506   5509     1   0.15241 261918.400000
   5509   5510     1   0.12183 533627.360000
   5509   5511     1   0.13513 334803.680000
   5514   5517     1   0.15375 251793.120000
   5514   5544     1   0.14316 258236.480000
   5517   5520     1   0.15375 251793.120000
   5520   5523     1   0.14647 272713.120000
   5523   5524     1   0.14647 272713.120000
   5523   5534     1   0.14647 272713.120000
   5524   5527     1   0.15375 251793.120000
   5527   5530     1   0.15241 261918.400000
   5530   5531     1   0.12183 533627.360000
   5530   5532     1   0.13513 334803.680000
   5534   5537     1   0.15375 251793.120000
   5537   5540     1   0.15241 261918.400000
   5540   5541     1   0.12183 533627.360000
   5540   5542     1   0.13513 334803.680000
   5545   5548     1   0.15375 251793.120000
   5545   5575     1   0.14316 258236.480000
   5548   5551     1   0.15375 251793.120000
   5551   5554     1   0.14647 272713.120000
   5554   5555     1   0.14647 272713.120000
   5554   5565     1   0.14647 272713.120000
   5555   5558     1   0.15375 251793.120000
   5558   5561     1   0.15241 261918.400000
   5561   5562     1   0.12183 533627.360000
   5561   5563     1   0.13513 334803.680000
   5565   5568     1   0.15375 251793.120000
   5568   5571     1   0.15241 261918.400000
   5571   5572     1   0.12183 533627.360000
   5571   5573     1   0.13513 334803.680000
   5576   5579     1   0.15375 251793.120000
   5576   5606     1   0.14316 258236.480000
   5579   5582     1   0.15375 251793.120000
   5582   5585     1   0.14647 272713.120000
   5585   5586     1   0.14647 272713.120000
   5585   5596     1   0.14647 272713.120000
   5586   5589     1   0.15375 251793.120000
   5589   5592     1   0.15241 261918.400000
   5592   5593     1   0.12183 533627.360000
   5592   5594     1   0.13513 334803.680000
   5596   5599     1   0.15375 251793.120000
   5599   5602     1   0.15241 261918.400000
   5602   5603     1   0.12183 533627.360000
   5602   5604     1   0.13513 334803.680000
   5607   5610     1   0.15375 251793.120000
   5607   5637     1   0.14316 258236.480000
   5610   5613     1   0.15375 251793.120000
   5613   5616     1   0.14647 272713.120000
   5616   5617     1   0.14647 272713.120000
   5616   5627     1   0.14647 272713.120000
   5617   5620     1   0.15375 251793.120000
   5620   5623     1   0.15241 261918.400000
   5623   5624     1   0.12183 533627.360000
   5623   5625     1   0.13513 334803.680000
   5627   5630     1   0.15375 251793.120000
   5630   5633     1   0.15241 261918.400000
   5633   5634     1   0.12183 533627.360000
   5633   5635     1   0.13513 334803.680000
   5638   5641     1   0.15375 251793.120000
   5638   5668     1   0.14316 258236.480000
   5641   5644     1   0.15375 251793.120000
   5644   5647     1   0.14647 272713.120000
   5647   5648     1   0.14647 272713.120000
   5647   5658     1   0.14647 272713.120000
   5648   5651     1   0.15375 251793.120000
   5651   5654     1   0.15241 261918.400000
   5654   5655     1   0.12183 533627.360000
   5654   5656     1   0.13513 334803.680000
   5658   5661     1   0.15375 251793.120000
   5661   5664     1   0.15241 261918.400000
   5664   5665     1   0.12183 533627.360000
   5664   5666     1   0.13513 334803.680000
   5669   5672     1   0.15375 251793.120000
   5669   5699     1   0.14316 258236.480000
   5672   5675     1   0.15375 251793.120000
   5675   5678     1   0.14647 272713.120000
   5678   5679     1   0.14647 272713.120000
   5678   5689     1   0.14647 272713.120000
   5679   5682     1   0.15375 251793.120000
   5682   5685     1   0.15241 261918.400000
   5685   5686     1   0.12183 533627.360000
   5685   5687     1   0.13513 334803.680000
   5689   5692     1   0.15375 251793.120000
   5692   5695     1   0.15241 261918.400000
   5695   5696     1   0.12183 533627.360000
   5695   5697     1   0.13513 334803.680000
   5700   5703     1   0.15375 251793.120000
   5700   5730     1   0.14316 258236.480000
   5703   5706     1   0.15375 251793.120000
   5706   5709     1   0.14647 272713.120000
   5709   5710     1   0.14647 272713.120000
   5709   5720     1   0.14647 272713.120000
   5710   5713     1   0.15375 251793.120000
   5713   5716     1   0.15241 261918.400000
   5716   5717     1   0.12183 533627.360000
   5716   5718     1   0.13513 334803.680000
   5720   5723     1   0.15375 251793.120000
   5723   5726     1   0.15241 261918.400000
   5726   5727     1   0.12183 533627.360000
   5726   5728     1   0.13513 334803.680000
   5731   5734     1   0.15375 251793.120000
   5731   5761     1   0.14316 258236.480000
   5734   5737     1   0.15375 251793.120000
   5737   5740     1   0.14647 272713.120000
   5740   5741     1   0.14647 272713.120000
   5740   5751     1   0.14647 272713.120000
   5741   5744     1   0.15375 251793.120000
   5744   5747     1   0.15241 261918.400000
   5747   5748     1   0.12183 533627.360000
   5747   5749     1   0.13513 334803.680000
   5751   5754     1   0.15375 251793.120000
   5754   5757     1   0.15241 261918.400000
   5757   5758     1   0.12183 533627.360000
   5757   5759     1   0.13513 334803.680000
   5762   5765     1   0.15375 251793.120000
   5762   5792     1   0.14316 258236.480000
   5765   5768     1   0.15375 251793.120000
   5768   5771     1   0.14647 272713.120000
   5771   5772     1   0.14647 272713.120000
   5771   5782     1   0.14647 272713.120000
   5772   5775     1   0.15375 251793.120000
   5775   5778     1   0.15241 261918.400000
   5778   5779     1   0.12183 533627.360000
   5778   5780     1   0.13513 334803.680000
   5782   5785     1   0.15375 251793.120000
   5785   5788     1   0.15241 261918.400000
   5788   5789     1   0.12183 533627.360000
   5788   5790     1   0.13513 334803.680000
   5793   5796     1   0.15375 251793.120000
   5793   5823     1   0.14316 258236.480000
   5796   5799     1   0.15375 251793.120000
   5799   5802     1   0.14647 272713.120000
   5802   5803     1   0.14647 272713.120000
   5802   5813     1   0.14647 272713.120000
   5803   5806     1   0.15375 251793.120000
   5806   5809     1   0.15241 261918.400000
   5809   5810     1   0.12183 533627.360000
   5809   5811     1   0.13513 334803.680000
   5813   5816     1   0.15375 251793.120000
   5816   5819     1   0.15241 261918.400000
   5819   5820     1   0.12183 533627.360000
   5819   5821     1   0.13513 334803.680000
   5824   5827     1   0.15375 251793.120000
   5824   5854     1   0.14316 258236.480000
   5827   5830     1   0.15375 251793.120000
   5830   5833     1   0.14647 272713.120000
   5833   5834     1   0.14647 272713.120000
   5833   5844     1   0.14647 272713.120000
   5834   5837     1   0.15375 251793.120000
   5837   5840     1   0.15241 261918.400000
   5840   5841     1   0.12183 533627.360000
   5840   5842     1   0.13513 334803.680000
   5844   5847     1   0.15375 251793.120000
   5847   5850     1   0.15241 261918.400000
   5850   5851     1   0.12183 533627.360000
   5850   5852     1   0.13513 334803.680000
   5855   5858     1   0.15375 251793.120000
   5855   5885     1   0.14316 258236.480000
   5858   5861     1   0.15375 251793.120000
   5861   5864     1   0.14647 272713.120000
   5864   5865     1   0.14647 272713.120000
   5864   5875     1   0.14647 272713.120000
   5865   5868     1   0.15375 251793.120000
   5868   5871     1   0.15241 261918.400000
   5871   5872     1   0.12183 533627.360000
   5871   5873     1   0.13513 334803.680000
   5875   5878     1   0.15375 251793.120000
   5878   5881     1   0.15241 261918.400000
   5881   5882     1   0.12183 533627.360000
   5881   5883     1   0.13513 334803.680000
   5886   5889     1   0.15375 251793.120000
   5886   5916     1   0.14316 258236.480000
   5889   5892     1   0.15375 251793.120000
   5892   5895     1   0.14647 272713.120000
   5895   5896     1   0.14647 272713.120000
   5895   5906     1   0.14647 272713.120000
   5896   5899     1   0.15375 251793.120000
   5899   5902     1   0.15241 261918.400000
   5902   5903     1   0.12183 533627.360000
   5902   5904     1   0.13513 334803.680000
   5906   5909     1   0.15375 251793.120000
   5909   5912     1   0.15241 261918.400000
   5912   5913     1   0.12183 533627.360000
   5912   5914     1   0.13513 334803.680000
   5917   5920     1   0.15375 251793.120000
   5917   5947     1   0.14316 258236.480000
   5920   5923     1   0.15375 251793.120000
   5923   5926     1   0.14647 272713.120000
   5926   5927     1   0.14647 272713.120000
   5926   5937     1   0.14647 272713.120000
   5927   5930     1   0.15375 251793.120000
   5930   5933     1   0.15241 261918.400000
   5933   5934     1   0.12183 533627.360000
   5933   5935     1   0.13513 334803.680000
   5937   5940     1   0.15375 251793.120000
   5940   5943     1   0.15241 261918.400000
   5943   5944     1   0.12183 533627.360000
   5943   5945     1   0.13513 334803.680000
   5948   5951     1   0.15375 251793.120000
   5948   5978     1   0.14316 258236.480000
   5951   5954     1   0.15375 251793.120000
   5954   5957     1   0.14647 272713.120000
   5957   5958     1   0.14647 272713.120000
   5957   5968     1   0.14647 272713.120000
   5958   5961     1   0.15375 251793.120000
   5961   5964     1   0.15241 261918.400000
   5964   5965     1   0.12183 533627.360000
   5964   5966     1   0.13513 334803.680000
   5968   5971     1   0.15375 251793.120000
   5971   5974     1   0.15241 261918.400000
   5974   5975     1   0.12183 533627.360000
   5974   5976     1   0.13513 334803.680000
   5979   5982     1   0.15375 251793.120000
   5979   6009     1   0.14316 258236.480000
   5982   5985     1   0.15375 251793.120000
   5985   5988     1   0.14647 272713.120000
   5988   5989     1   0.14647 272713.120000
   5988   5999     1   0.14647 272713.120000
   5989   5992     1   0.15375 251793.120000
   5992   5995     1   0.15241 261918.400000
   5995   5996     1   0.12183 533627.360000
   5995   5997     1   0.13513 334803.680000
   5999   6002     1   0.15375 251793.120000
   6002   6005     1   0.15241 261918.400000
   6005   6006     1   0.12183 533627.360000
   6005   6007     1   0.13513 334803.680000
   6010   6013     1   0.15375 251793.120000
   6010   6040     1   0.14316 258236.480000
   6013   6016     1   0.15375 251793.120000
   6016   6019     1   0.14647 272713.120000
   6019   6020     1   0.14647 272713.120000
   6019   6030     1   0.14647 272713.120000
   6020   6023     1   0.15375 251793.120000
   6023   6026     1   0.15241 261918.400000
   6026   6027     1   0.12183 533627.360000
   6026   6028     1   0.13513 334803.680000
   6030   6033     1   0.15375 251793.120000
   6033   6036     1   0.15241 261918.400000
   6036   6037     1   0.12183 533627.360000
   6036   6038     1   0.13513 334803.680000
   6041   6044     1   0.15375 251793.120000
   6041   6071     1   0.14316 258236.480000
   6044   6047     1   0.15375 251793.120000
   6047   6050     1   0.14647 272713.120000
   6050   6051     1   0.14647 272713.120000
   6050   6061     1   0.14647 272713.120000
   6051   6054     1   0.15375 251793.120000
   6054   6057     1   0.15241 261918.400000
   6057   6058     1   0.12183 533627.360000
   6057   6059     1   0.13513 334803.680000
   6061   6064     1   0.15375 251793.120000
   6064   6067     1   0.15241 261918.400000
   6067   6068     1   0.12183 533627.360000
   6067   6069     1   0.13513 334803.680000
   6072   6075     1   0.15375 251793.120000
   6072   6102     1   0.14316 258236.480000
   6075   6078     1   0.15375 251793.120000
   6078   6081     1   0.14647 272713.120000
   6081   6082     1   0.14647 272713.120000
   6081   6092     1   0.14647 272713.120000
   6082   6085     1   0.15375 251793.120000
   6085   6088     1   0.15241 261918.400000
   6088   6089     1   0.12183 533627.360000
   6088   6090     1   0.13513 334803.680000
   6092   6095     1   0.15375 251793.120000
   6095   6098     1   0.15241 261918.400000
   6098   6099     1   0.12183 533627.360000
   6098   6100     1   0.13513 334803.680000
   6103   6106     1   0.15375 251793.120000
   6103   6133     1   0.14316 258236.480000
   6106   6109     1   0.15375 251793.120000
   6109   6112     1   0.14647 272713.120000
   6112   6113     1   0.14647 272713.120000
   6112   6123     1   0.14647 272713.120000
   6113   6116     1   0.15375 251793.120000
   6116   6119     1   0.15241 261918.400000
   6119   6120     1   0.12183 533627.360000
   6119   6121     1   0.13513 334803.680000
   6123   6126     1   0.15375 251793.120000
   6126   6129     1   0.15241 261918.400000
   6129   6130     1   0.12183 533627.360000
   6129   6131     1   0.13513 334803.680000
   6134   6137     1   0.15375 251793.120000
   6134   6164     1   0.14316 258236.480000
   6137   6140     1   0.15375 251793.120000
   6140   6143     1   0.14647 272713.120000
   6143   6144     1   0.14647 272713.120000
   6143   6154     1   0.14647 272713.120000
   6144   6147     1   0.15375 251793.120000
   6147   6150     1   0.15241 261918.400000
   6150   6151     1   0.12183 533627.360000
   6150   6152     1   0.13513 334803.680000
   6154   6157     1   0.15375 251793.120000
   6157   6160     1   0.15241 261918.400000
   6160   6161     1   0.12183 533627.360000
   6160   6162     1   0.13513 334803.680000
   6165   6168     1   0.15375 251793.120000
   6165   6195     1   0.14316 258236.480000
   6168   6171     1   0.15375 251793.120000
   6171   6174     1   0.14647 272713.120000
   6174   6175     1   0.14647 272713.120000
   6174   6185     1   0.14647 272713.120000
   6175   6178     1   0.15375 251793.120000
   6178   6181     1   0.15241 261918.400000
   6181   6182     1   0.12183 533627.360000
   6181   6183     1   0.13513 334803.680000
   6185   6188     1   0.15375 251793.120000
   6188   6191     1   0.15241 261918.400000
   6191   6192     1   0.12183 533627.360000
   6191   6193     1   0.13513 334803.680000
   6196   6199     1   0.15375 251793.120000
   6196   6226     1   0.14316 258236.480000
   6199   6202     1   0.15375 251793.120000
   6202   6205     1   0.14647 272713.120000
   6205   6206     1   0.14647 272713.120000
   6205   6216     1   0.14647 272713.120000
   6206   6209     1   0.15375 251793.120000
   6209   6212     1   0.15241 261918.400000
   6212   6213     1   0.12183 533627.360000
   6212   6214     1   0.13513 334803.680000
   6216   6219     1   0.15375 251793.120000
   6219   6222     1   0.15241 261918.400000
   6222   6223     1   0.12183 533627.360000
   6222   6224     1   0.13513 334803.680000
   6227   6230     1   0.15375 251793.120000
   6227   6257     1   0.14316 258236.480000
   6230   6233     1   0.15375 251793.120000
   6233   6236     1   0.14647 272713.120000
   6236   6237     1   0.14647 272713.120000
   6236   6247     1   0.14647 272713.120000
   6237   6240     1   0.15375 251793.120000
   6240   6243     1   0.15241 261918.400000
   6243   6244     1   0.12183 533627.360000
   6243   6245     1   0.13513 334803.680000
   6247   6250     1   0.15375 251793.120000
   6250   6253     1   0.15241 261918.400000
   6253   6254     1   0.12183 533627.360000
   6253   6255     1   0.13513 334803.680000
   6258   6261     1   0.15375 251793.120000
   6258   6288     1   0.14316 258236.480000
   6261   6264     1   0.15375 251793.120000
   6264   6267     1   0.14647 272713.120000
   6267   6268     1   0.14647 272713.120000
   6267   6278     1   0.14647 272713.120000
   6268   6271     1   0.15375 251793.120000
   6271   6274     1   0.15241 261918.400000
   6274   6275     1   0.12183 533627.360000
   6274   6276     1   0.13513 334803.680000
   6278   6281     1   0.15375 251793.120000
   6281   6284     1   0.15241 261918.400000
   6284   6285     1   0.12183 533627.360000
   6284   6286     1   0.13513 334803.680000
   6289   6292     1   0.15375 251793.120000
   6289   6319     1   0.14316 258236.480000
   6292   6295     1   0.15375 251793.120000
   6295   6298     1   0.14647 272713.120000
   6298   6299     1   0.14647 272713.120000
   6298   6309     1   0.14647 272713.120000
   6299   6302     1   0.15375 251793.120000
   6302   6305     1   0.15241 261918.400000
   6305   6306     1   0.12183 533627.360000
   6305   6307     1   0.13513 334803.680000
   6309   6312     1   0.15375 251793.120000
   6312   6315     1   0.15241 261918.400000
   6315   6316     1   0.12183 533627.360000
   6315   6317     1   0.13513 334803.680000
   6320   6323     1   0.15375 251793.120000
   6320   6350     1   0.14316 258236.480000
   6323   6326     1   0.15375 251793.120000
   6326   6329     1   0.14647 272713.120000
   6329   6330     1   0.14647 272713.120000
   6329   6340     1   0.14647 272713.120000
   6330   6333     1   0.15375 251793.120000
   6333   6336     1   0.15241 261918.400000
   6336   6337     1   0.12183 533627.360000
   6336   6338     1   0.13513 334803.680000
   6340   6343     1   0.15375 251793.120000
   6343   6346     1   0.15241 261918.400000
   6346   6347     1   0.12183 533627.360000
   6346   6348     1   0.13513 334803.680000
   6351   6354     1   0.15375 251793.120000
   6351   6381     1   0.14316 258236.480000
   6354   6357     1   0.15375 251793.120000
   6357   6360     1   0.14647 272713.120000
   6360   6361     1   0.14647 272713.120000
   6360   6371     1   0.14647 272713.120000
   6361   6364     1   0.15375 251793.120000
   6364   6367     1   0.15241 261918.400000
   6367   6368     1   0.12183 533627.360000
   6367   6369     1   0.13513 334803.680000
   6371   6374     1   0.15375 251793.120000
   6374   6377     1   0.15241 261918.400000
   6377   6378     1   0.12183 533627.360000
   6377   6379     1   0.13513 334803.680000
   6382   6385     1   0.15375 251793.120000
   6382   6412     1   0.14316 258236.480000
   6385   6388     1   0.15375 251793.120000
   6388   6391     1   0.14647 272713.120000
   6391   6392     1   0.14647 272713.120000
   6391   6402     1   0.14647 272713.120000
   6392   6395     1   0.15375 251793.120000
   6395   6398     1   0.15241 261918.400000
   6398   6399     1   0.12183 533627.360000
   6398   6400     1   0.13513 334803.680000
   6402   6405     1   0.15375 251793.120000
   6405   6408     1   0.15241 261918.400000
   6408   6409     1   0.12183 533627.360000
   6408   6410     1   0.13513 334803.680000
   6413   6416     1   0.15375 251793.120000
   6413   6443     1   0.14316 258236.480000
   6416   6419     1   0.15375 251793.120000
   6419   6422     1   0.14647 272713.120000
   6422   6423     1   0.14647 272713.120000
   6422   6433     1   0.14647 272713.120000
   6423   6426     1   0.15375 251793.120000
   6426   6429     1   0.15241 261918.400000
   6429   6430     1   0.12183 533627.360000
   6429   6431     1   0.13513 334803.680000
   6433   6436     1   0.15375 251793.120000
   6436   6439     1   0.15241 261918.400000
   6439   6440     1   0.12183 533627.360000
   6439   6441     1   0.13513 334803.680000
   6444   6447     1   0.15375 251793.120000
   6444   6474     1   0.14316 258236.480000
   6447   6450     1   0.15375 251793.120000
   6450   6453     1   0.14647 272713.120000
   6453   6454     1   0.14647 272713.120000
   6453   6464     1   0.14647 272713.120000
   6454   6457     1   0.15375 251793.120000
   6457   6460     1   0.15241 261918.400000
   6460   6461     1   0.12183 533627.360000
   6460   6462     1   0.13513 334803.680000
   6464   6467     1   0.15375 251793.120000
   6467   6470     1   0.15241 261918.400000
   6470   6471     1   0.12183 533627.360000
   6470   6472     1   0.13513 334803.680000
   6475   6478     1   0.15375 251793.120000
   6475   6505     1   0.14316 258236.480000
   6478   6481     1   0.15375 251793.120000
   6481   6484     1   0.14647 272713.120000
   6484   6485     1   0.14647 272713.120000
   6484   6495     1   0.14647 272713.120000
   6485   6488     1   0.15375 251793.120000
   6488   6491     1   0.15241 261918.400000
   6491   6492     1   0.12183 533627.360000
   6491   6493     1   0.13513 334803.680000
   6495   6498     1   0.15375 251793.120000
   6498   6501     1   0.15241 261918.400000
   6501   6502     1   0.12183 533627.360000
   6501   6503     1   0.13513 334803.680000
   6506   6509     1   0.15375 251793.120000
   6506   6536     1   0.14316 258236.480000
   6509   6512     1   0.15375 251793.120000
   6512   6515     1   0.14647 272713.120000
   6515   6516     1   0.14647 272713.120000
   6515   6526     1   0.14647 272713.120000
   6516   6519     1   0.15375 251793.120000
   6519   6522     1   0.15241 261918.400000
   6522   6523     1   0.12183 533627.360000
   6522   6524     1   0.13513 334803.680000
   6526   6529     1   0.15375 251793.120000
   6529   6532     1   0.15241 261918.400000
   6532   6533     1   0.12183 533627.360000
   6532   6534     1   0.13513 334803.680000
   6537   6540     1   0.15375 251793.120000
   6537   6567     1   0.14316 258236.480000
   6540   6543     1   0.15375 251793.120000
   6543   6546     1   0.14647 272713.120000
   6546   6547     1   0.14647 272713.120000
   6546   6557     1   0.14647 272713.120000
   6547   6550     1   0.15375 251793.120000
   6550   6553     1   0.15241 261918.400000
   6553   6554     1   0.12183 533627.360000
   6553   6555     1   0.13513 334803.680000
   6557   6560     1   0.15375 251793.120000
   6560   6563     1   0.15241 261918.400000
   6563   6564     1   0.12183 533627.360000
   6563   6565     1   0.13513 334803.680000
   6568   6571     1   0.15375 251793.120000
   6568   6598     1   0.14316 258236.480000
   6571   6574     1   0.15375 251793.120000
   6574   6577     1   0.14647 272713.120000
   6577   6578     1   0.14647 272713.120000
   6577   6588     1   0.14647 272713.120000
   6578   6581     1   0.15375 251793.120000
   6581   6584     1   0.15241 261918.400000
   6584   6585     1   0.12183 533627.360000
   6584   6586     1   0.13513 334803.680000
   6588   6591     1   0.15375 251793.120000
   6591   6594     1   0.15241 261918.400000
   6594   6595     1   0.12183 533627.360000
   6594   6596     1   0.13513 334803.680000
   6599   6602     1   0.15375 251793.120000
   6599   6629     1   0.14316 258236.480000
   6602   6605     1   0.15375 251793.120000
   6605   6608     1   0.14647 272713.120000
   6608   6609     1   0.14647 272713.120000
   6608   6619     1   0.14647 272713.120000
   6609   6612     1   0.15375 251793.120000
   6612   6615     1   0.15241 261918.400000
   6615   6616     1   0.12183 533627.360000
   6615   6617     1   0.13513 334803.680000
   6619   6622     1   0.15375 251793.120000
   6622   6625     1   0.15241 261918.400000
   6625   6626     1   0.12183 533627.360000
   6625   6627     1   0.13513 334803.680000
   6630   6633     1   0.15375 251793.120000
   6630   6660     1   0.14316 258236.480000
   6633   6636     1   0.15375 251793.120000
   6636   6639     1   0.14647 272713.120000
   6639   6640     1   0.14647 272713.120000
   6639   6650     1   0.14647 272713.120000
   6640   6643     1   0.15375 251793.120000
   6643   6646     1   0.15241 261918.400000
   6646   6647     1   0.12183 533627.360000
   6646   6648     1   0.13513 334803.680000
   6650   6653     1   0.15375 251793.120000
   6653   6656     1   0.15241 261918.400000
   6656   6657     1   0.12183 533627.360000
   6656   6658     1   0.13513 334803.680000
   6661   6664     1   0.15375 251793.120000
   6661   6691     1   0.14316 258236.480000
   6664   6667     1   0.15375 251793.120000
   6667   6670     1   0.14647 272713.120000
   6670   6671     1   0.14647 272713.120000
   6670   6681     1   0.14647 272713.120000
   6671   6674     1   0.15375 251793.120000
   6674   6677     1   0.15241 261918.400000
   6677   6678     1   0.12183 533627.360000
   6677   6679     1   0.13513 334803.680000
   6681   6684     1   0.15375 251793.120000
   6684   6687     1   0.15241 261918.400000
   6687   6688     1   0.12183 533627.360000
   6687   6689     1   0.13513 334803.680000
   6692   6695     1   0.15375 251793.120000
   6692   6722     1   0.14316 258236.480000
   6695   6698     1   0.15375 251793.120000
   6698   6701     1   0.14647 272713.120000
   6701   6702     1   0.14647 272713.120000
   6701   6712     1   0.14647 272713.120000
   6702   6705     1   0.15375 251793.120000
   6705   6708     1   0.15241 261918.400000
   6708   6709     1   0.12183 533627.360000
   6708   6710     1   0.13513 334803.680000
   6712   6715     1   0.15375 251793.120000
   6715   6718     1   0.15241 261918.400000
   6718   6719     1   0.12183 533627.360000
   6718   6720     1   0.13513 334803.680000
   6723   6726     1   0.15375 251793.120000
   6723   6753     1   0.14316 258236.480000
   6726   6729     1   0.15375 251793.120000
   6729   6732     1   0.14647 272713.120000
   6732   6733     1   0.14647 272713.120000
   6732   6743     1   0.14647 272713.120000
   6733   6736     1   0.15375 251793.120000
   6736   6739     1   0.15241 261918.400000
   6739   6740     1   0.12183 533627.360000
   6739   6741     1   0.13513 334803.680000
   6743   6746     1   0.15375 251793.120000
   6746   6749     1   0.15241 261918.400000
   6749   6750     1   0.12183 533627.360000
   6749   6751     1   0.13513 334803.680000
   6754   6757     1   0.15375 251793.120000
   6754   6784     1   0.14316 258236.480000
   6757   6760     1   0.15375 251793.120000
   6760   6763     1   0.14647 272713.120000
   6763   6764     1   0.14647 272713.120000
   6763   6774     1   0.14647 272713.120000
   6764   6767     1   0.15375 251793.120000
   6767   6770     1   0.15241 261918.400000
   6770   6771     1   0.12183 533627.360000
   6770   6772     1   0.13513 334803.680000
   6774   6777     1   0.15375 251793.120000
   6777   6780     1   0.15241 261918.400000
   6780   6781     1   0.12183 533627.360000
   6780   6782     1   0.13513 334803.680000
   6785   6788     1   0.15375 251793.120000
   6785   6815     1   0.14316 258236.480000
   6788   6791     1   0.15375 251793.120000
   6791   6794     1   0.14647 272713.120000
   6794   6795     1   0.14647 272713.120000
   6794   6805     1   0.14647 272713.120000
   6795   6798     1   0.15375 251793.120000
   6798   6801     1   0.15241 261918.400000
   6801   6802     1   0.12183 533627.360000
   6801   6803     1   0.13513 334803.680000
   6805   6808     1   0.15375 251793.120000
   6808   6811     1   0.15241 261918.400000
   6811   6812     1   0.12183 533627.360000
   6811   6813     1   0.13513 334803.680000
   6816   6819     1   0.15375 251793.120000
   6816   6846     1   0.14316 258236.480000
   6819   6822     1   0.15375 251793.120000
   6822   6825     1   0.14647 272713.120000
   6825   6826     1   0.14647 272713.120000
   6825   6836     1   0.14647 272713.120000
   6826   6829     1   0.15375 251793.120000
   6829   6832     1   0.15241 261918.400000
   6832   6833     1   0.12183 533627.360000
   6832   6834     1   0.13513 334803.680000
   6836   6839     1   0.15375 251793.120000
   6839   6842     1   0.15241 261918.400000
   6842   6843     1   0.12183 533627.360000
   6842   6844     1   0.13513 334803.680000
   6847   6850     1   0.15375 251793.120000
   6847   6877     1   0.14316 258236.480000
   6850   6853     1   0.15375 251793.120000
   6853   6856     1   0.14647 272713.120000
   6856   6857     1   0.14647 272713.120000
   6856   6867     1   0.14647 272713.120000
   6857   6860     1   0.15375 251793.120000
   6860   6863     1   0.15241 261918.400000
   6863   6864     1   0.12183 533627.360000
   6863   6865     1   0.13513 334803.680000
   6867   6870     1   0.15375 251793.120000
   6870   6873     1   0.15241 261918.400000
   6873   6874     1   0.12183 533627.360000
   6873   6875     1   0.13513 334803.680000
   6878   6881     1   0.15375 251793.120000
   6878   6908     1   0.14316 258236.480000
   6881   6884     1   0.15375 251793.120000
   6884   6887     1   0.14647 272713.120000
   6887   6888     1   0.14647 272713.120000
   6887   6898     1   0.14647 272713.120000
   6888   6891     1   0.15375 251793.120000
   6891   6894     1   0.15241 261918.400000
   6894   6895     1   0.12183 533627.360000
   6894   6896     1   0.13513 334803.680000
   6898   6901     1   0.15375 251793.120000
   6901   6904     1   0.15241 261918.400000
   6904   6905     1   0.12183 533627.360000
   6904   6906     1   0.13513 334803.680000
   6909   6912     1   0.15375 251793.120000
   6909   6939     1   0.14316 258236.480000
   6912   6915     1   0.15375 251793.120000
   6915   6918     1   0.14647 272713.120000
   6918   6919     1   0.14647 272713.120000
   6918   6929     1   0.14647 272713.120000
   6919   6922     1   0.15375 251793.120000
   6922   6925     1   0.15241 261918.400000
   6925   6926     1   0.12183 533627.360000
   6925   6927     1   0.13513 334803.680000
   6929   6932     1   0.15375 251793.120000
   6932   6935     1   0.15241 261918.400000
   6935   6936     1   0.12183 533627.360000
   6935   6937     1   0.13513 334803.680000
   6940   6943     1   0.15375 251793.120000
   6940   6970     1   0.14316 258236.480000
   6943   6946     1   0.15375 251793.120000
   6946   6949     1   0.14647 272713.120000
   6949   6950     1   0.14647 272713.120000
   6949   6960     1   0.14647 272713.120000
   6950   6953     1   0.15375 251793.120000
   6953   6956     1   0.15241 261918.400000
   6956   6957     1   0.12183 533627.360000
   6956   6958     1   0.13513 334803.680000
   6960   6963     1   0.15375 251793.120000
   6963   6966     1   0.15241 261918.400000
   6966   6967     1   0.12183 533627.360000
   6966   6968     1   0.13513 334803.680000
   6971   6974     1   0.15375 251793.120000
   6971   7001     1   0.14316 258236.480000
   6974   6977     1   0.15375 251793.120000
   6977   6980     1   0.14647 272713.120000
   6980   6981     1   0.14647 272713.120000
   6980   6991     1   0.14647 272713.120000
   6981   6984     1   0.15375 251793.120000
   6984   6987     1   0.15241 261918.400000
   6987   6988     1   0.12183 533627.360000
   6987   6989     1   0.13513 334803.680000
   6991   6994     1   0.15375 251793.120000
   6994   6997     1   0.15241 261918.400000
   6997   6998     1   0.12183 533627.360000
   6997   6999     1   0.13513 334803.680000
   7002   7005     1   0.15375 251793.120000
   7002   7032     1   0.14316 258236.480000
   7005   7008     1   0.15375 251793.120000
   7008   7011     1   0.14647 272713.120000
   7011   7012     1   0.14647 272713.120000
   7011   7022     1   0.14647 272713.120000
   7012   7015     1   0.15375 251793.120000
   7015   7018     1   0.15241 261918.400000
   7018   7019     1   0.12183 533627.360000
   7018   7020     1   0.13513 334803.680000
   7022   7025     1   0.15375 251793.120000
   7025   7028     1   0.15241 261918.400000
   7028   7029     1   0.12183 533627.360000
   7028   7030     1   0.13513 334803.680000
   7033   7036     1   0.15375 251793.120000
   7033   7063     1   0.14316 258236.480000
   7036   7039     1   0.15375 251793.120000
   7039   7042     1   0.14647 272713.120000
   7042   7043     1   0.14647 272713.120000
   7042   7053     1   0.14647 272713.120000
   7043   7046     1   0.15375 251793.120000
   7046   7049     1   0.15241 261918.400000
   7049   7050     1   0.12183 533627.360000
   7049   7051     1   0.13513 334803.680000
   7053   7056     1   0.15375 251793.120000
   7056   7059     1   0.15241 261918.400000
   7059   7060     1   0.12183 533627.360000
   7059   7061     1   0.13513 334803.680000
   7064   7067     1   0.15375 251793.120000
   7064   7094     1   0.14316 258236.480000
   7067   7070     1   0.15375 251793.120000
   7070   7073     1   0.14647 272713.120000
   7073   7074     1   0.14647 272713.120000
   7073   7084     1   0.14647 272713.120000
   7074   7077     1   0.15375 251793.120000
   7077   7080     1   0.15241 261918.400000
   7080   7081     1   0.12183 533627.360000
   7080   7082     1   0.13513 334803.680000
   7084   7087     1   0.15375 251793.120000
   7087   7090     1   0.15241 261918.400000
   7090   7091     1   0.12183 533627.360000
   7090   7092     1   0.13513 334803.680000
   7095   7098     1   0.15375 251793.120000
   7095   7125     1   0.14316 258236.480000
   7098   7101     1   0.15375 251793.120000
   7101   7104     1   0.14647 272713.120000
   7104   7105     1   0.14647 272713.120000
   7104   7115     1   0.14647 272713.120000
   7105   7108     1   0.15375 251793.120000
   7108   7111     1   0.15241 261918.400000
   7111   7112     1   0.12183 533627.360000
   7111   7113     1   0.13513 334803.680000
   7115   7118     1   0.15375 251793.120000
   7118   7121     1   0.15241 261918.400000
   7121   7122     1   0.12183 533627.360000
   7121   7123     1   0.13513 334803.680000
   7126   7129     1   0.15375 251793.120000
   7126   7156     1   0.14316 258236.480000
   7129   7132     1   0.15375 251793.120000
   7132   7135     1   0.14647 272713.120000
   7135   7136     1   0.14647 272713.120000
   7135   7146     1   0.14647 272713.120000
   7136   7139     1   0.15375 251793.120000
   7139   7142     1   0.15241 261918.400000
   7142   7143     1   0.12183 533627.360000
   7142   7144     1   0.13513 334803.680000
   7146   7149     1   0.15375 251793.120000
   7149   7152     1   0.15241 261918.400000
   7152   7153     1   0.12183 533627.360000
   7152   7154     1   0.13513 334803.680000
   7157   7160     1   0.15375 251793.120000
   7157   7187     1   0.14316 258236.480000
   7160   7163     1   0.15375 251793.120000
   7163   7166     1   0.14647 272713.120000
   7166   7167     1   0.14647 272713.120000
   7166   7177     1   0.14647 272713.120000
   7167   7170     1   0.15375 251793.120000
   7170   7173     1   0.15241 261918.400000
   7173   7174     1   0.12183 533627.360000
   7173   7175     1   0.13513 334803.680000
   7177   7180     1   0.15375 251793.120000
   7180   7183     1   0.15241 261918.400000
   7183   7184     1   0.12183 533627.360000
   7183   7185     1   0.13513 334803.680000
   7188   7191     1   0.15375 251793.120000
   7188   7218     1   0.14316 258236.480000
   7191   7194     1   0.15375 251793.120000
   7194   7197     1   0.14647 272713.120000
   7197   7198     1   0.14647 272713.120000
   7197   7208     1   0.14647 272713.120000
   7198   7201     1   0.15375 251793.120000
   7201   7204     1   0.15241 261918.400000
   7204   7205     1   0.12183 533627.360000
   7204   7206     1   0.13513 334803.680000
   7208   7211     1   0.15375 251793.120000
   7211   7214     1   0.15241 261918.400000
   7214   7215     1   0.12183 533627.360000
   7214   7216     1   0.13513 334803.680000
   7219   7222     1   0.15375 251793.120000
   7219   7249     1   0.14316 258236.480000
   7222   7225     1   0.15375 251793.120000
   7225   7228     1   0.14647 272713.120000
   7228   7229     1   0.14647 272713.120000
   7228   7239     1   0.14647 272713.120000
   7229   7232     1   0.15375 251793.120000
   7232   7235     1   0.15241 261918.400000
   7235   7236     1   0.12183 533627.360000
   7235   7237     1   0.13513 334803.680000
   7239   7242     1   0.15375 251793.120000
   7242   7245     1   0.15241 261918.400000
   7245   7246     1   0.12183 533627.360000
   7245   7247     1   0.13513 334803.680000
   7250   7253     1   0.15375 251793.120000
   7250   7280     1   0.14316 258236.480000
   7253   7256     1   0.15375 251793.120000
   7256   7259     1   0.14647 272713.120000
   7259   7260     1   0.14647 272713.120000
   7259   7270     1   0.14647 272713.120000
   7260   7263     1   0.15375 251793.120000
   7263   7266     1   0.15241 261918.400000
   7266   7267     1   0.12183 533627.360000
   7266   7268     1   0.13513 334803.680000
   7270   7273     1   0.15375 251793.120000
   7273   7276     1   0.15241 261918.400000
   7276   7277     1   0.12183 533627.360000
   7276   7278     1   0.13513 334803.680000
   7281   7284     1   0.15375 251793.120000
   7281   7311     1   0.14316 258236.480000
   7284   7287     1   0.15375 251793.120000
   7287   7290     1   0.14647 272713.120000
   7290   7291     1   0.14647 272713.120000
   7290   7301     1   0.14647 272713.120000
   7291   7294     1   0.15375 251793.120000
   7294   7297     1   0.15241 261918.400000
   7297   7298     1   0.12183 533627.360000
   7297   7299     1   0.13513 334803.680000
   7301   7304     1   0.15375 251793.120000
   7304   7307     1   0.15241 261918.400000
   7307   7308     1   0.12183 533627.360000
   7307   7309     1   0.13513 334803.680000
   7312   7315     1   0.15375 251793.120000
   7312   7342     1   0.14316 258236.480000
   7315   7318     1   0.15375 251793.120000
   7318   7321     1   0.14647 272713.120000
   7321   7322     1   0.14647 272713.120000
   7321   7332     1   0.14647 272713.120000
   7322   7325     1   0.15375 251793.120000
   7325   7328     1   0.15241 261918.400000
   7328   7329     1   0.12183 533627.360000
   7328   7330     1   0.13513 334803.680000
   7332   7335     1   0.15375 251793.120000
   7335   7338     1   0.15241 261918.400000
   7338   7339     1   0.12183 533627.360000
   7338   7340     1   0.13513 334803.680000
   7343   7346     1   0.15375 251793.120000
   7343   7373     1   0.14316 258236.480000
   7346   7349     1   0.15375 251793.120000
   7349   7352     1   0.14647 272713.120000
   7352   7353     1   0.14647 272713.120000
   7352   7363     1   0.14647 272713.120000
   7353   7356     1   0.15375 251793.120000
   7356   7359     1   0.15241 261918.400000
   7359   7360     1   0.12183 533627.360000
   7359   7361     1   0.13513 334803.680000
   7363   7366     1   0.15375 251793.120000
   7366   7369     1   0.15241 261918.400000
   7369   7370     1   0.12183 533627.360000
   7369   7371     1   0.13513 334803.680000
   7374   7377     1   0.15375 251793.120000
   7374   7404     1   0.14316 258236.480000
   7377   7380     1   0.15375 251793.120000
   7380   7383     1   0.14647 272713.120000
   7383   7384     1   0.14647 272713.120000
   7383   7394     1   0.14647 272713.120000
   7384   7387     1   0.15375 251793.120000
   7387   7390     1   0.15241 261918.400000
   7390   7391     1   0.12183 533627.360000
   7390   7392     1   0.13513 334803.680000
   7394   7397     1   0.15375 251793.120000
   7397   7400     1   0.15241 261918.400000
   7400   7401     1   0.12183 533627.360000
   7400   7402     1   0.13513 334803.680000
   7405   7408     1   0.15375 251793.120000
   7405   7435     1   0.14316 258236.480000
   7408   7411     1   0.15375 251793.120000
   7411   7414     1   0.14647 272713.120000
   7414   7415     1   0.14647 272713.120000
   7414   7425     1   0.14647 272713.120000
   7415   7418     1   0.15375 251793.120000
   7418   7421     1   0.15241 261918.400000
   7421   7422     1   0.12183 533627.360000
   7421   7423     1   0.13513 334803.680000
   7425   7428     1   0.15375 251793.120000
   7428   7431     1   0.15241 261918.400000
   7431   7432     1   0.12183 533627.360000
   7431   7433     1   0.13513 334803.680000
   7436   7439     1   0.15375 251793.120000
   7436   7466     1   0.14316 258236.480000
   7439   7442     1   0.15375 251793.120000
   7442   7445     1   0.14647 272713.120000
   7445   7446     1   0.14647 272713.120000
   7445   7456     1   0.14647 272713.120000
   7446   7449     1   0.15375 251793.120000
   7449   7452     1   0.15241 261918.400000
   7452   7453     1   0.12183 533627.360000
   7452   7454     1   0.13513 334803.680000
   7456   7459     1   0.15375 251793.120000
   7459   7462     1   0.15241 261918.400000
   7462   7463     1   0.12183 533627.360000
   7462   7464     1   0.13513 334803.680000
   7467   7470     1   0.15375 251793.120000
   7467   7497     1   0.14316 258236.480000
   7470   7473     1   0.15375 251793.120000
   7473   7476     1   0.14647 272713.120000
   7476   7477     1   0.14647 272713.120000
   7476   7487     1   0.14647 272713.120000
   7477   7480     1   0.15375 251793.120000
   7480   7483     1   0.15241 261918.400000
   7483   7484     1   0.12183 533627.360000
   7483   7485     1   0.13513 334803.680000
   7487   7490     1   0.15375 251793.120000
   7490   7493     1   0.15241 261918.400000
   7493   7494     1   0.12183 533627.360000
   7493   7495     1   0.13513 334803.680000
   7498   7501     1   0.15375 251793.120000
   7498   7528     1   0.14316 258236.480000
   7501   7504     1   0.15375 251793.120000
   7504   7507     1   0.14647 272713.120000
   7507   7508     1   0.14647 272713.120000
   7507   7518     1   0.14647 272713.120000
   7508   7511     1   0.15375 251793.120000
   7511   7514     1   0.15241 261918.400000
   7514   7515     1   0.12183 533627.360000
   7514   7516     1   0.13513 334803.680000
   7518   7521     1   0.15375 251793.120000
   7521   7524     1   0.15241 261918.400000
   7524   7525     1   0.12183 533627.360000
   7524   7526     1   0.13513 334803.680000
   7529   7532     1   0.15375 251793.120000
   7529   7559     1   0.14316 258236.480000
   7532   7535     1   0.15375 251793.120000
   7535   7538     1   0.14647 272713.120000
   7538   7539     1   0.14647 272713.120000
   7538   7549     1   0.14647 272713.120000
   7539   7542     1   0.15375 251793.120000
   7542   7545     1   0.15241 261918.400000
   7545   7546     1   0.12183 533627.360000
   7545   7547     1   0.13513 334803.680000
   7549   7552     1   0.15375 251793.120000
   7552   7555     1   0.15241 261918.400000
   7555   7556     1   0.12183 533627.360000
   7555   7557     1   0.13513 334803.680000
   7560   7563     1   0.15375 251793.120000
   7560   7590     1   0.14316 258236.480000
   7563   7566     1   0.15375 251793.120000
   7566   7569     1   0.14647 272713.120000
   7569   7570     1   0.14647 272713.120000
   7569   7580     1   0.14647 272713.120000
   7570   7573     1   0.15375 251793.120000
   7573   7576     1   0.15241 261918.400000
   7576   7577     1   0.12183 533627.360000
   7576   7578     1   0.13513 334803.680000
   7580   7583     1   0.15375 251793.120000
   7583   7586     1   0.15241 261918.400000
   7586   7587     1   0.12183 533627.360000
   7586   7588     1   0.13513 334803.680000
   7591   7594     1   0.15375 251793.120000
   7591   7621     1   0.14316 258236.480000
   7594   7597     1   0.15375 251793.120000
   7597   7600     1   0.14647 272713.120000
   7600   7601     1   0.14647 272713.120000
   7600   7611     1   0.14647 272713.120000
   7601   7604     1   0.15375 251793.120000
   7604   7607     1   0.15241 261918.400000
   7607   7608     1   0.12183 533627.360000
   7607   7609     1   0.13513 334803.680000
   7611   7614     1   0.15375 251793.120000
   7614   7617     1   0.15241 261918.400000
   7617   7618     1   0.12183 533627.360000
   7617   7619     1   0.13513 334803.680000
      2      3     1   0.10969 276646.080000
      2      4     1   0.10969 276646.080000
      5      6     1   0.10969 276646.080000
      5      7     1   0.10969 276646.080000
      8      9     1   0.10969 276646.080000
      8     10     1   0.10969 276646.080000
     11     12     1   0.10969 276646.080000
     11     13     1   0.10969 276646.080000
     14     15     1   0.10969 276646.080000
     14     16     1   0.10969 276646.080000
     17     18     1   0.10969 276646.080000
     17     19     1   0.10969 276646.080000
     22     23     1   0.10969 276646.080000
     22     24     1   0.10969 276646.080000
     25     26     1   0.10969 276646.080000
     25     27     1   0.10969 276646.080000
     28     29     1   0.10969 276646.080000
     28     30     1   0.10969 276646.080000
     31     32     1   0.10969 276646.080000
     31     33     1   0.10969 276646.080000
     34     35     1   0.10969 276646.080000
     34     36     1   0.10969 276646.080000
     37     38     1   0.10969 276646.080000
     37     39     1   0.10969 276646.080000
     40     41     1   0.10969 276646.080000
     40     42     1   0.10969 276646.080000
     43     44     1   0.10969 276646.080000
     43     45     1   0.10969 276646.080000
     46     47     1   0.10969 276646.080000
     46     48     1   0.10969 276646.080000
     49     50     1   0.10969 276646.080000
     49     51     1   0.10969 276646.080000
     52     53     1   0.10969 276646.080000
     52     54     1   0.10969 276646.080000
     55     56     1   0.10969 276646.080000
     55     57     1   0.10969 276646.080000
     59     60     1   0.10969 276646.080000
     59     61     1   0.10969 276646.080000
     62     63     1   0.10969 276646.080000
     62     64     1   0.10969 276646.080000
     65     66     1   0.10969 276646.080000
     65     67     1   0.10969 276646.080000
     68     69     1   0.10969 276646.080000
     68     70     1   0.10969 276646.080000
     71     72     1   0.10969 276646.080000
     71     73     1   0.10969 276646.080000
     74     75     1   0.10969 276646.080000
     74     76     1   0.10969 276646.080000
     77     78     1   0.10969 276646.080000
     77     79     1   0.10969 276646.080000
     80     81     1   0.10969 276646.080000
     80     82     1   0.10969 276646.080000
     83     84     1   0.10969 276646.080000
     83     85     1   0.10969 276646.080000
     88     89     1   0.10969 276646.080000
     88     90     1   0.10969 276646.080000
     91     92     1   0.10969 276646.080000
     91     93     1   0.10969 276646.080000
     94     95     1   0.10969 276646.080000
     94     96     1   0.10969 276646.080000
     97     98     1   0.10969 276646.080000
     97     99     1   0.10969 276646.080000
    100    101     1   0.10969 276646.080000
    100    102     1   0.10969 276646.080000
    103    104     1   0.10969 276646.080000
    103    105     1   0.10969 276646.080000
    106    107     1   0.10969 276646.080000
    106    108     1   0.10969 276646.080000
    109    110     1   0.10969 276646.080000
    109    111     1   0.10969 276646.080000
    112    113     1   0.10969 276646.080000
    112    114     1   0.10969 276646.080000
    117    118     1   0.10969 276646.080000
    117    119     1   0.10969 276646.080000
    120    121     1   0.10969 276646.080000
    120    122     1   0.10969 276646.080000
    123    124     1   0.10969 276646.080000
    123    125     1   0.10969 276646.080000
    126    127     1   0.10969 276646.080000
    126    128     1   0.10969 276646.080000
    129    130     1   0.10969 276646.080000
    129    131     1   0.10969 276646.080000
    132    133     1   0.10969 276646.080000
    132    134     1   0.10969 276646.080000
    135    136     1   0.10969 276646.080000
    135    137     1   0.10969 276646.080000
    138    139     1   0.10969 276646.080000
    138    140     1   0.10969 276646.080000
    141    142     1   0.10969 276646.080000
    141    143     1   0.10969 276646.080000
    146    147     1   0.10969 276646.080000
    146    148     1   0.10969 276646.080000
    149    150     1   0.10969 276646.080000
    149    151     1   0.10969 276646.080000
    152    153     1   0.10969 276646.080000
    152    154     1   0.10969 276646.080000
    155    156     1   0.10969 276646.080000
    155    157     1   0.10969 276646.080000
    158    159     1   0.10969 276646.080000
    158    160     1   0.10969 276646.080000
    161    162     1   0.10969 276646.080000
    161    163     1   0.10969 276646.080000
    164    165     1   0.10969 276646.080000
    164    166     1   0.10969 276646.080000
    167    168     1   0.10969 276646.080000
    167    169     1   0.10969 276646.080000
    170    171     1   0.10969 276646.080000
    170    172     1   0.10969 276646.080000
    175    176     1   0.10969 276646.080000
    175    177     1   0.10969 276646.080000
    178    179     1   0.10969 276646.080000
    178    180     1   0.10969 276646.080000
    181    182     1   0.10969 276646.080000
    181    183     1   0.10969 276646.080000
    184    185     1   0.10969 276646.080000
    184    186     1   0.10969 276646.080000
    187    188     1   0.10969 276646.080000
    187    189     1   0.10969 276646.080000
    190    191     1   0.10969 276646.080000
    190    192     1   0.10969 276646.080000
    193    194     1   0.10969 276646.080000
    193    195     1   0.10969 276646.080000
    196    197     1   0.10969 276646.080000
    196    198     1   0.10969 276646.080000
    199    200     1   0.10969 276646.080000
    199    201     1   0.10969 276646.080000
    204    205     1   0.10969 276646.080000
    204    206     1   0.10969 276646.080000
    207    208     1   0.10969 276646.080000
    207    209     1   0.10969 276646.080000
    210    211     1   0.10969 276646.080000
    210    212     1   0.10969 276646.080000
    213    214     1   0.10969 276646.080000
    213    215     1   0.10969 276646.080000
    216    217     1   0.10969 276646.080000
    216    218     1   0.10969 276646.080000
    219    220     1   0.10969 276646.080000
    219    221     1   0.10969 276646.080000
    222    223     1   0.10969 276646.080000
    222    224     1   0.10969 276646.080000
    225    226     1   0.10969 276646.080000
    225    227     1   0.10969 276646.080000
    228    229     1   0.10969 276646.080000
    228    230     1   0.10969 276646.080000
    233    234     1   0.10969 276646.080000
    233    235     1   0.10969 276646.080000
    236    237     1   0.10969 276646.080000
    236    238     1   0.10969 276646.080000
    239    240     1   0.10969 276646.080000
    239    241     1   0.10969 276646.080000
    242    243     1   0.10969 276646.080000
    242    244     1   0.10969 276646.080000
    245    246     1   0.10969 276646.080000
    245    247     1   0.10969 276646.080000
    248    249     1   0.10969 276646.080000
    248    250     1   0.10969 276646.080000
    251    252     1   0.10969 276646.080000
    251    253     1   0.10969 276646.080000
    254    255     1   0.10969 276646.080000
    254    256     1   0.10969 276646.080000
    257    258     1   0.10969 276646.080000
    257    259     1   0.10969 276646.080000
    262    263     1   0.10969 276646.080000
    262    264     1   0.10969 276646.080000
    265    266     1   0.10969 276646.080000
    265    267     1   0.10969 276646.080000
    268    269     1   0.10969 276646.080000
    268    270     1   0.10969 276646.080000
    271    272     1   0.10969 276646.080000
    271    273     1   0.10969 276646.080000
    274    275     1   0.10969 276646.080000
    274    276     1   0.10969 276646.080000
    277    278     1   0.10969 276646.080000
    277    279     1   0.10969 276646.080000
    280    281     1   0.10969 276646.080000
    280    282     1   0.10969 276646.080000
    283    284     1   0.10969 276646.080000
    283    285     1   0.10969 276646.080000
    286    287     1   0.10969 276646.080000
    286    288     1   0.10969 276646.080000
    291    292     1   0.10969 276646.080000
    291    293     1   0.10969 276646.080000
    294    295     1   0.10969 276646.080000
    294    296     1   0.10969 276646.080000
    297    298     1   0.10969 276646.080000
    297    299     1   0.10969 276646.080000
    300    301     1   0.10969 276646.080000
    300    302     1   0.10969 276646.080000
    303    304     1   0.10969 276646.080000
    303    305     1   0.10969 276646.080000
    306    307     1   0.10969 276646.080000
    306    308     1   0.10969 276646.080000
    309    310     1   0.10969 276646.080000
    309    311     1   0.10969 276646.080000
    312    313     1   0.10969 276646.080000
    312    314     1   0.10969 276646.080000
    315    316     1   0.10969 276646.080000
    315    317     1   0.10969 276646.080000
    320    321     1   0.10969 276646.080000
    320    322     1   0.10969 276646.080000
    323    324     1   0.10969 276646.080000
    323    325     1   0.10969 276646.080000
    326    327     1   0.10969 276646.080000
    326    328     1   0.10969 276646.080000
    329    330     1   0.10969 276646.080000
    329    331     1   0.10969 276646.080000
    332    333     1   0.10969 276646.080000
    332    334     1   0.10969 276646.080000
    335    336     1   0.10969 276646.080000
    335    337     1   0.10969 276646.080000
    338    339     1   0.10969 276646.080000
    338    340     1   0.10969 276646.080000
    341    342     1   0.10969 276646.080000
    341    343     1   0.10969 276646.080000
    344    345     1   0.10969 276646.080000
    344    346     1   0.10969 276646.080000
    349    350     1   0.10969 276646.080000
    349    351     1   0.10969 276646.080000
    352    353     1   0.10969 276646.080000
    352    354     1   0.10969 276646.080000
    355    356     1   0.10969 276646.080000
    355    357     1   0.10969 276646.080000
    358    359     1   0.10969 276646.080000
    358    360     1   0.10969 276646.080000
    361    362     1   0.10969 276646.080000
    361    363     1   0.10969 276646.080000
    364    365     1   0.10969 276646.080000
    364    366     1   0.10969 276646.080000
    367    368     1   0.10969 276646.080000
    367    369     1   0.10969 276646.080000
    370    371     1   0.10969 276646.080000
    370    372     1   0.10969 276646.080000
    373    374     1   0.10969 276646.080000
    373    375     1   0.10969 276646.080000
    378    379     1   0.10969 276646.080000
    378    380     1   0.10969 276646.080000
    381    382     1   0.10969 276646.080000
    381    383     1   0.10969 276646.080000
    384    385     1   0.10969 276646.080000
    384    386     1   0.10969 276646.080000
    387    388     1   0.10969 276646.080000
    387    389     1   0.10969 276646.080000
    390    391     1   0.10969 276646.080000
    390    392     1   0.10969 276646.080000
    393    394     1   0.10969 276646.080000
    393    395     1   0.10969 276646.080000
    396    397     1   0.10969 276646.080000
    396    398     1   0.10969 276646.080000
    399    400     1   0.10969 276646.080000
    399    401     1   0.10969 276646.080000
    402    403     1   0.10969 276646.080000
    402    404     1   0.10969 276646.080000
    407    408     1   0.10969 276646.080000
    407    409     1   0.10969 276646.080000
    410    411     1   0.10969 276646.080000
    410    412     1   0.10969 276646.080000
    413    414     1   0.10969 276646.080000
    413    415     1   0.10969 276646.080000
    416    417     1   0.10969 276646.080000
    416    418     1   0.10969 276646.080000
    419    420     1   0.10969 276646.080000
    419    421     1   0.10969 276646.080000
    422    423     1   0.10969 276646.080000
    422    424     1   0.10969 276646.080000
    425    426     1   0.10969 276646.080000
    425    427     1   0.10969 276646.080000
    428    429     1   0.10969 276646.080000
    428    430     1   0.10969 276646.080000
    431    432     1   0.10969 276646.080000
    431    433     1   0.10969 276646.080000
    436    437     1   0.10969 276646.080000
    436    438     1   0.10969 276646.080000
    439    440     1   0.10969 276646.080000
    439    441     1   0.10969 276646.080000
    442    443     1   0.10969 276646.080000
    442    444     1   0.10969 276646.080000
    445    446     1   0.10969 276646.080000
    445    447     1   0.10969 276646.080000
    448    449     1   0.10969 276646.080000
    448    450     1   0.10969 276646.080000
    451    452     1   0.10969 276646.080000
    451    453     1   0.10969 276646.080000
    454    455     1   0.10969 276646.080000
    454    456     1   0.10969 276646.080000
    457    458     1   0.10969 276646.080000
    457    459     1   0.10969 276646.080000
    460    461     1   0.10969 276646.080000
    460    462     1   0.10969 276646.080000
    465    466     1   0.10969 276646.080000
    465    467     1   0.10969 276646.080000
    468    469     1   0.10969 276646.080000
    468    470     1   0.10969 276646.080000
    471    472     1   0.10969 276646.080000
    471    473     1   0.10969 276646.080000
    474    475     1   0.10969 276646.080000
    474    476     1   0.10969 276646.080000
    477    478     1   0.10969 276646.080000
    477    479     1   0.10969 276646.080000
    480    481     1   0.10969 276646.080000
    480    482     1   0.10969 276646.080000
    483    484     1   0.10969 276646.080000
    483    485     1   0.10969 276646.080000
    486    487     1   0.10969 276646.080000
    486    488     1   0.10969 276646.080000
    489    490     1   0.10969 276646.080000
    489    491     1   0.10969 276646.080000
    494    495     1   0.10969 276646.080000
    494    496     1   0.10969 276646.080000
    497    498     1   0.10969 276646.080000
    497    499     1   0.10969 276646.080000
    500    501     1   0.10969 276646.080000
    500    502     1   0.10969 276646.080000
    503    504     1   0.10969 276646.080000
    503    505     1   0.10969 276646.080000
    506    507     1   0.10969 276646.080000
    506    508     1   0.10969 276646.080000
    509    510     1   0.10969 276646.080000
    509    511     1   0.10969 276646.080000
    512    513     1   0.10969 276646.080000
    512    514     1   0.10969 276646.080000
    515    516     1   0.10969 276646.080000
    515    517     1   0.10969 276646.080000
    518    519     1   0.10969 276646.080000
    518    520     1   0.10969 276646.080000
    523    524     1   0.10969 276646.080000
    523    525     1   0.10969 276646.080000
    526    527     1   0.10969 276646.080000
    526    528     1   0.10969 276646.080000
    529    530     1   0.10969 276646.080000
    529    531     1   0.10969 276646.080000
    532    533     1   0.10969 276646.080000
    532    534     1   0.10969 276646.080000
    535    536     1   0.10969 276646.080000
    535    537     1   0.10969 276646.080000
    538    539     1   0.10969 276646.080000
    538    540     1   0.10969 276646.080000
    541    542     1   0.10969 276646.080000
    541    543     1   0.10969 276646.080000
    544    545     1   0.10969 276646.080000
    544    546     1   0.10969 276646.080000
    547    548     1   0.10969 276646.080000
    547    549     1   0.10969 276646.080000
    552    553     1   0.10969 276646.080000
    552    554     1   0.10969 276646.080000
    555    556     1   0.10969 276646.080000
    555    557     1   0.10969 276646.080000
    558    559     1   0.10969 276646.080000
    558    560     1   0.10969 276646.080000
    561    562     1   0.10969 276646.080000
    561    563     1   0.10969 276646.080000
    564    565     1   0.10969 276646.080000
    564    566     1   0.10969 276646.080000
    567    568     1   0.10969 276646.080000
    567    569     1   0.10969 276646.080000
    570    571     1   0.10969 276646.080000
    570    572     1   0.10969 276646.080000
    573    574     1   0.10969 276646.080000
    573    575     1   0.10969 276646.080000
    576    577     1   0.10969 276646.080000
    576    578     1   0.10969 276646.080000
    581    582     1   0.10969 276646.080000
    581    583     1   0.10969 276646.080000
    584    585     1   0.10969 276646.080000
    584    586     1   0.10969 276646.080000
    587    588     1   0.10969 276646.080000
    587    589     1   0.10969 276646.080000
    590    591     1   0.10969 276646.080000
    590    592     1   0.10969 276646.080000
    593    594     1   0.10969 276646.080000
    593    595     1   0.10969 276646.080000
    596    597     1   0.10969 276646.080000
    596    598     1   0.10969 276646.080000
    599    600     1   0.10969 276646.080000
    599    601     1   0.10969 276646.080000
    602    603     1   0.10969 276646.080000
    602    604     1   0.10969 276646.080000
    605    606     1   0.10969 276646.080000
    605    607     1   0.10969 276646.080000
    610    611     1   0.10969 276646.080000
    610    612     1   0.10969 276646.080000
    613    614     1   0.10969 276646.080000
    613    615     1   0.10969 276646.080000
    616    617     1   0.10969 276646.080000
    616    618     1   0.10969 276646.080000
    619    620     1   0.10969 276646.080000
    619    621     1   0.10969 276646.080000
    622    623     1   0.10969 276646.080000
    622    624     1   0.10969 276646.080000
    625    626     1   0.10969 276646.080000
    625    627     1   0.10969 276646.080000
    628    629     1   0.10969 276646.080000
    628    630     1   0.10969 276646.080000
    631    632     1   0.10969 276646.080000
    631    633     1   0.10969 276646.080000
    634    635     1   0.10969 276646.080000
    634    636     1   0.10969 276646.080000
    639    640     1   0.10969 276646.080000
    639    641     1   0.10969 276646.080000
    642    643     1   0.10969 276646.080000
    642    644     1   0.10969 276646.080000
    645    646     1   0.10969 276646.080000
    645    647     1   0.10969 276646.080000
    648    649     1   0.10969 276646.080000
    648    650     1   0.10969 276646.080000
    651    652     1   0.10969 276646.080000
    651    653     1   0.10969 276646.080000
    654    655     1   0.10969 276646.080000
    654    656     1   0.10969 276646.080000
    657    658     1   0.10969 276646.080000
    657    659     1   0.10969 276646.080000
    660    661     1   0.10969 276646.080000
    660    662     1   0.10969 276646.080000
    663    664     1   0.10969 276646.080000
    663    665     1   0.10969 276646.080000
    668    669     1   0.10969 276646.080000
    668    670     1   0.10969 276646.080000
    671    672     1   0.10969 276646.080000
    671    673     1   0.10969 276646.080000
    674    675     1   0.10969 276646.080000
    674    676     1   0.10969 276646.080000
    677    678     1   0.10969 276646.080000
    677    679     1   0.10969 276646.080000
    680    681     1   0.10969 276646.080000
    680    682     1   0.10969 276646.080000
    683    684     1   0.10969 276646.080000
    683    685     1   0.10969 276646.080000
    686    687     1   0.10969 276646.080000
    686    688     1   0.10969 276646.080000
    689    690     1   0.10969 276646.080000
    689    691     1   0.10969 276646.080000
    692    693     1   0.10969 276646.080000
    692    694     1   0.10969 276646.080000
    697    698     1   0.10969 276646.080000
    697    699     1   0.10969 276646.080000
    700    701     1   0.10969 276646.080000
    700    702     1   0.10969 276646.080000
    703    704     1   0.10969 276646.080000
    703    705     1   0.10969 276646.080000
    706    707     1   0.10969 276646.080000
    706    708     1   0.10969 276646.080000
    709    710     1   0.10969 276646.080000
    709    711     1   0.10969 276646.080000
    712    713     1   0.10969 276646.080000
    712    714     1   0.10969 276646.080000
    715    716     1   0.10969 276646.080000
    715    717     1   0.10969 276646.080000
    718    719     1   0.10969 276646.080000
    718    720     1   0.10969 276646.080000
    721    722     1   0.10969 276646.080000
    721    723     1   0.10969 276646.080000
    726    727     1   0.10969 276646.080000
    726    728     1   0.10969 276646.080000
    729    730     1   0.10969 276646.080000
    729    731     1   0.10969 276646.080000
    732    733     1   0.10969 276646.080000
    732    734     1   0.10969 276646.080000
    735    736     1   0.10969 276646.080000
    735    737     1   0.10969 276646.080000
    738    739     1   0.10969 276646.080000
    738    740     1   0.10969 276646.080000
    741    742     1   0.10969 276646.080000
    741    743     1   0.10969 276646.080000
    744    745     1   0.10969 276646.080000
    744    746     1   0.10969 276646.080000
    747    748     1   0.10969 276646.080000
    747    749     1   0.10969 276646.080000
    750    751     1   0.10969 276646.080000
    750    752     1   0.10969 276646.080000
    755    756     1   0.10969 276646.080000
    755    757     1   0.10969 276646.080000
    758    759     1   0.10969 276646.080000
    758    760     1   0.10969 276646.080000
    761    762     1   0.10969 276646.080000
    761    763     1   0.10969 276646.080000
    764    765     1   0.10969 276646.080000
    764    766     1   0.10969 276646.080000
    767    768     1   0.10969 276646.080000
    767    769     1   0.10969 276646.080000
    770    771     1   0.10969 276646.080000
    770    772     1   0.10969 276646.080000
    773    774     1   0.10969 276646.080000
    773    775     1   0.10969 276646.080000
    776    777     1   0.10969 276646.080000
    776    778     1   0.10969 276646.080000
    779    780     1   0.10969 276646.080000
    779    781     1   0.10969 276646.080000
    784    785     1   0.10969 276646.080000
    784    786     1   0.10969 276646.080000
    787    788     1   0.10969 276646.080000
    787    789     1   0.10969 276646.080000
    790    791     1   0.10969 276646.080000
    790    792     1   0.10969 276646.080000
    793    794     1   0.10969 276646.080000
    793    795     1   0.10969 276646.080000
    796    797     1   0.10969 276646.080000
    796    798     1   0.10969 276646.080000
    799    800     1   0.10969 276646.080000
    799    801     1   0.10969 276646.080000
    802    803     1   0.10969 276646.080000
    802    804     1   0.10969 276646.080000
    805    806     1   0.10969 276646.080000
    805    807     1   0.10969 276646.080000
    808    809     1   0.10969 276646.080000
    808    810     1   0.10969 276646.080000
    813    814     1   0.10969 276646.080000
    813    815     1   0.10969 276646.080000
    816    817     1   0.10969 276646.080000
    816    818     1   0.10969 276646.080000
    819    820     1   0.10969 276646.080000
    819    821     1   0.10969 276646.080000
    822    823     1   0.10969 276646.080000
    822    824     1   0.10969 276646.080000
    825    826     1   0.10969 276646.080000
    825    827     1   0.10969 276646.080000
    828    829     1   0.10969 276646.080000
    828    830     1   0.10969 276646.080000
    831    832     1   0.10969 276646.080000
    831    833     1   0.10969 276646.080000
    834    835     1   0.10969 276646.080000
    834    836     1   0.10969 276646.080000
    837    838     1   0.10969 276646.080000
    837    839     1   0.10969 276646.080000
    842    843     1   0.10969 276646.080000
    842    844     1   0.10969 276646.080000
    845    846     1   0.10969 276646.080000
    845    847     1   0.10969 276646.080000
    848    849     1   0.10969 276646.080000
    848    850     1   0.10969 276646.080000
    851    852     1   0.10969 276646.080000
    851    853     1   0.10969 276646.080000
    854    855     1   0.10969 276646.080000
    854    856     1   0.10969 276646.080000
    857    858     1   0.10969 276646.080000
    857    859     1   0.10969 276646.080000
    860    861     1   0.10969 276646.080000
    860    862     1   0.10969 276646.080000
    863    864     1   0.10969 276646.080000
    863    865     1   0.10969 276646.080000
    866    867     1   0.10969 276646.080000
    866    868     1   0.10969 276646.080000
    871    872     1   0.10969 276646.080000
    871    873     1   0.10969 276646.080000
    874    875     1   0.10969 276646.080000
    874    876     1   0.10969 276646.080000
    877    878     1   0.10969 276646.080000
    877    879     1   0.10969 276646.080000
    880    881     1   0.10969 276646.080000
    880    882     1   0.10969 276646.080000
    883    884     1   0.10969 276646.080000
    883    885     1   0.10969 276646.080000
    886    887     1   0.10969 276646.080000
    886    888     1   0.10969 276646.080000
    889    890     1   0.10969 276646.080000
    889    891     1   0.10969 276646.080000
    892    893     1   0.10969 276646.080000
    892    894     1   0.10969 276646.080000
    895    896     1   0.10969 276646.080000
    895    897     1   0.10969 276646.080000
    900    901     1   0.10969 276646.080000
    900    902     1   0.10969 276646.080000
    903    904     1   0.10969 276646.080000
    903    905     1   0.10969 276646.080000
    906    907     1   0.10969 276646.080000
    906    908     1   0.10969 276646.080000
    909    910     1   0.10969 276646.080000
    909    911     1   0.10969 276646.080000
    912    913     1   0.10969 276646.080000
    912    914     1   0.10969 276646.080000
    915    916     1   0.10969 276646.080000
    915    917     1   0.10969 276646.080000
    918    919     1   0.10969 276646.080000
    918    920     1   0.10969 276646.080000
    921    922     1   0.10969 276646.080000
    921    923     1   0.10969 276646.080000
    924    925     1   0.10969 276646.080000
    924    926     1   0.10969 276646.080000
    929    930     1   0.10969 276646.080000
    929    931     1   0.10969 276646.080000
    932    933     1   0.10969 276646.080000
    932    934     1   0.10969 276646.080000
    935    936     1   0.10969 276646.080000
    935    937     1   0.10969 276646.080000
    938    939     1   0.10969 276646.080000
    938    940     1   0.10969 276646.080000
    941    942     1   0.10969 276646.080000
    941    943     1   0.10969 276646.080000
    944    945     1   0.10969 276646.080000
    944    946     1   0.10969 276646.080000
    947    948     1   0.10969 276646.080000
    947    949     1   0.10969 276646.080000
    950    951     1   0.10969 276646.080000
    950    952     1   0.10969 276646.080000
    953    954     1   0.10969 276646.080000
    953    955     1   0.10969 276646.080000
    958    959     1   0.10969 276646.080000
    958    960     1   0.10969 276646.080000
    961    962     1   0.10969 276646.080000
    961    963     1   0.10969 276646.080000
    964    965     1   0.10969 276646.080000
    964    966     1   0.10969 276646.080000
    967    968     1   0.10969 276646.080000
    967    969     1   0.10969 276646.080000
    970    971     1   0.10969 276646.080000
    970    972     1   0.10969 276646.080000
    973    974     1   0.10969 276646.080000
    973    975     1   0.10969 276646.080000
    976    977     1   0.10969 276646.080000
    976    978     1   0.10969 276646.080000
    979    980     1   0.10969 276646.080000
    979    981     1   0.10969 276646.080000
    982    983     1   0.10969 276646.080000
    982    984     1   0.10969 276646.080000
    987    988     1   0.10969 276646.080000
    987    989     1   0.10969 276646.080000
    990    991     1   0.10969 276646.080000
    990    992     1   0.10969 276646.080000
    993    994     1   0.10969 276646.080000
    993    995     1   0.10969 276646.080000
    996    997     1   0.10969 276646.080000
    996    998     1   0.10969 276646.080000
    999   1000     1   0.10969 276646.080000
    999   1001     1   0.10969 276646.080000
   1002   1003     1   0.10969 276646.080000
   1002   1004     1   0.10969 276646.080000
   1005   1006     1   0.10969 276646.080000
   1005   1007     1   0.10969 276646.080000
   1008   1009     1   0.10969 276646.080000
   1008   1010     1   0.10969 276646.080000
   1011   1012     1   0.10969 276646.080000
   1011   1013     1   0.10969 276646.080000
   1016   1017     1   0.10969 276646.080000
   1016   1018     1   0.10969 276646.080000
   1019   1020     1   0.10969 276646.080000
   1019   1021     1   0.10969 276646.080000
   1022   1023     1   0.10969 276646.080000
   1022   1024     1   0.10969 276646.080000
   1025   1026     1   0.10969 276646.080000
   1025   1027     1   0.10969 276646.080000
   1028   1029     1   0.10969 276646.080000
   1028   1030     1   0.10969 276646.080000
   1031   1032     1   0.10969 276646.080000
   1031   1033     1   0.10969 276646.080000
   1034   1035     1   0.10969 276646.080000
   1034   1036     1   0.10969 276646.080000
   1037   1038     1   0.10969 276646.080000
   1037   1039     1   0.10969 276646.080000
   1040   1041     1   0.10969 276646.080000
   1040   1042     1   0.10969 276646.080000
   1045   1046     1   0.10969 276646.080000
   1045   1047     1   0.10969 276646.080000
   1048   1049     1   0.10969 276646.080000
   1048   1050     1   0.10969 276646.080000
   1051   1052     1   0.10969 276646.080000
   1051   1053     1   0.10969 276646.080000
   1054   1055     1   0.10969 276646.080000
   1054   1056     1   0.10969 276646.080000
   1057   1058     1   0.10969 276646.080000
   1057   1059     1   0.10969 276646.080000
   1060   1061     1   0.10969 276646.080000
   1060   1062     1   0.10969 276646.080000
   1063   1064     1   0.10969 276646.080000
   1063   1065     1   0.10969 276646.080000
   1066   1067     1   0.10969 276646.080000
   1066   1068     1   0.10969 276646.080000
   1069   1070     1   0.10969 276646.080000
   1069   1071     1   0.10969 276646.080000
   1074   1075     1   0.10969 276646.080000
   1074   1076     1   0.10969 276646.080000
   1077   1078     1   0.10969 276646.080000
   1077   1079     1   0.10969 276646.080000
   1080   1081     1   0.10969 276646.080000
   1080   1082     1   0.10969 276646.080000
   1083   1084     1   0.10969 276646.080000
   1083   1085     1   0.10969 276646.080000
   1086   1087     1   0.10969 276646.080000
   1086   1088     1   0.10969 276646.080000
   1089   1090     1   0.10969 276646.080000
   1089   1091     1   0.10969 276646.080000
   1092   1093     1   0.10969 276646.080000
   1092   1094     1   0.10969 276646.080000
   1095   1096     1   0.10969 276646.080000
   1095   1097     1   0.10969 276646.080000
   1098   1099     1   0.10969 276646.080000
   1098   1100     1   0.10969 276646.080000
   1103   1104     1   0.10969 276646.080000
   1103   1105     1   0.10969 276646.080000
   1106   1107     1   0.10969 276646.080000
   1106   1108     1   0.10969 276646.080000
   1109   1110     1   0.10969 276646.080000
   1109   1111     1   0.10969 276646.080000
   1112   1113     1   0.10969 276646.080000
   1112   1114     1   0.10969 276646.080000
   1115   1116     1   0.10969 276646.080000
   1115   1117     1   0.10969 276646.080000
   1118   1119     1   0.10969 276646.080000
   1118   1120     1   0.10969 276646.080000
   1121   1122     1   0.10969 276646.080000
   1121   1123     1   0.10969 276646.080000
   1124   1125     1   0.10969 276646.080000
   1124   1126     1   0.10969 276646.080000
   1127   1128     1   0.10969 276646.080000
   1127   1129     1   0.10969 276646.080000
   1132   1133     1   0.10969 276646.080000
   1132   1134     1   0.10969 276646.080000
   1135   1136     1   0.10969 276646.080000
   1135   1137     1   0.10969 276646.080000
   1138   1139     1   0.10969 276646.080000
   1138   1140     1   0.10969 276646.080000
   1141   1142     1   0.10969 276646.080000
   1141   1143     1   0.10969 276646.080000
   1144   1145     1   0.10969 276646.080000
   1144   1146     1   0.10969 276646.080000
   1147   1148     1   0.10969 276646.080000
   1147   1149     1   0.10969 276646.080000
   1150   1151     1   0.10969 276646.080000
   1150   1152     1   0.10969 276646.080000
   1153   1154     1   0.10969 276646.080000
   1153   1155     1   0.10969 276646.080000
   1156   1157     1   0.10969 276646.080000
   1156   1158     1   0.10969 276646.080000
   1161   1162     1   0.10969 276646.080000
   1161   1163     1   0.10969 276646.080000
   1164   1165     1   0.10969 276646.080000
   1164   1166     1   0.10969 276646.080000
   1167   1168     1   0.10969 276646.080000
   1167   1169     1   0.10969 276646.080000
   1170   1171     1   0.10969 276646.080000
   1170   1172     1   0.10969 276646.080000
   1173   1174     1   0.10969 276646.080000
   1173   1175     1   0.10969 276646.080000
   1176   1177     1   0.10969 276646.080000
   1176   1178     1   0.10969 276646.080000
   1179   1180     1   0.10969 276646.080000
   1179   1181     1   0.10969 276646.080000
   1182   1183     1   0.10969 276646.080000
   1182   1184     1   0.10969 276646.080000
   1185   1186     1   0.10969 276646.080000
   1185   1187     1   0.10969 276646.080000
   1190   1191     1   0.10969 276646.080000
   1190   1192     1   0.10969 276646.080000
   1193   1194     1   0.10969 276646.080000
   1193   1195     1   0.10969 276646.080000
   1196   1197     1   0.10969 276646.080000
   1196   1198     1   0.10969 276646.080000
   1199   1200     1   0.10969 276646.080000
   1199   1201     1   0.10969 276646.080000
   1202   1203     1   0.10969 276646.080000
   1202   1204     1   0.10969 276646.080000
   1205   1206     1   0.10969 276646.080000
   1205   1207     1   0.10969 276646.080000
   1208   1209     1   0.10969 276646.080000
   1208   1210     1   0.10969 276646.080000
   1211   1212     1   0.10969 276646.080000
   1211   1213     1   0.10969 276646.080000
   1214   1215     1   0.10969 276646.080000
   1214   1216     1   0.10969 276646.080000
   1219   1220     1   0.10969 276646.080000
   1219   1221     1   0.10969 276646.080000
   1222   1223     1   0.10969 276646.080000
   1222   1224     1   0.10969 276646.080000
   1225   1226     1   0.10969 276646.080000
   1225   1227     1   0.10969 276646.080000
   1228   1229     1   0.10969 276646.080000
   1228   1230     1   0.10969 276646.080000
   1231   1232     1   0.10969 276646.080000
   1231   1233     1   0.10969 276646.080000
   1234   1235     1   0.10969 276646.080000
   1234   1236     1   0.10969 276646.080000
   1237   1238     1   0.10969 276646.080000
   1237   1239     1   0.10969 276646.080000
   1240   1241     1   0.10969 276646.080000
   1240   1242     1   0.10969 276646.080000
   1243   1244     1   0.10969 276646.080000
   1243   1245     1   0.10969 276646.080000
   1248   1249     1   0.10969 276646.080000
   1248   1250     1   0.10969 276646.080000
   1251   1252     1   0.10969 276646.080000
   1251   1253     1   0.10969 276646.080000
   1254   1255     1   0.10969 276646.080000
   1254   1256     1   0.10969 276646.080000
   1257   1258     1   0.10969 276646.080000
   1257   1259     1   0.10969 276646.080000
   1260   1261     1   0.10969 276646.080000
   1260   1262     1   0.10969 276646.080000
   1263   1264     1   0.10969 276646.080000
   1263   1265     1   0.10969 276646.080000
   1266   1267     1   0.10969 276646.080000
   1266   1268     1   0.10969 276646.080000
   1269   1270     1   0.10969 276646.080000
   1269   1271     1   0.10969 276646.080000
   1272   1273     1   0.10969 276646.080000
   1272   1274     1   0.10969 276646.080000
   1277   1278     1   0.10969 276646.080000
   1277   1279     1   0.10969 276646.080000
   1280   1281     1   0.10969 276646.080000
   1280   1282     1   0.10969 276646.080000
   1283   1284     1   0.10969 276646.080000
   1283   1285     1   0.10969 276646.080000
   1286   1287     1   0.10969 276646.080000
   1286   1288     1   0.10969 276646.080000
   1289   1290     1   0.10969 276646.080000
   1289   1291     1   0.10969 276646.080000
   1292   1293     1   0.10969 276646.080000
   1292   1294     1   0.10969 276646.080000
   1295   1296     1   0.10969 276646.080000
   1295   1297     1   0.10969 276646.080000
   1298   1299     1   0.10969 276646.080000
   1298   1300     1   0.10969 276646.080000
   1301   1302     1   0.10969 276646.080000
   1301   1303     1   0.10969 276646.080000
   1306   1307     1   0.10969 276646.080000
   1306   1308     1   0.10969 276646.080000
   1309   1310     1   0.10969 276646.080000
   1309   1311     1   0.10969 276646.080000
   1312   1313     1   0.10969 276646.080000
   1312   1314     1   0.10969 276646.080000
   1315   1316     1   0.10969 276646.080000
   1315   1317     1   0.10969 276646.080000
   1318   1319     1   0.10969 276646.080000
   1318   1320     1   0.10969 276646.080000
   1321   1322     1   0.10969 276646.080000
   1321   1323     1   0.10969 276646.080000
   1324   1325     1   0.10969 276646.080000
   1324   1326     1   0.10969 276646.080000
   1327   1328     1   0.10969 276646.080000
   1327   1329     1   0.10969 276646.080000
   1330   1331     1   0.10969 276646.080000
   1330   1332     1   0.10969 276646.080000
   1335   1336     1   0.10969 276646.080000
   1335   1337     1   0.10969 276646.080000
   1338   1339     1   0.10969 276646.080000
   1338   1340     1   0.10969 276646.080000
   1341   1342     1   0.10969 276646.080000
   1341   1343     1   0.10969 276646.080000
   1344   1345     1   0.10969 276646.080000
   1344   1346     1   0.10969 276646.080000
   1347   1348     1   0.10969 276646.080000
   1347   1349     1   0.10969 276646.080000
   1350   1351     1   0.10969 276646.080000
   1350   1352     1   0.10969 276646.080000
   1353   1354     1   0.10969 276646.080000
   1353   1355     1   0.10969 276646.080000
   1356   1357     1   0.10969 276646.080000
   1356   1358     1   0.10969 276646.080000
   1359   1360     1   0.10969 276646.080000
   1359   1361     1   0.10969 276646.080000
   1364   1365     1   0.10969 276646.080000
   1364   1366     1   0.10969 276646.080000
   1367   1368     1   0.10969 276646.080000
   1367   1369     1   0.10969 276646.080000
   1370   1371     1   0.10969 276646.080000
   1370   1372     1   0.10969 276646.080000
   1373   1374     1   0.10969 276646.080000
   1373   1375     1   0.10969 276646.080000
   1376   1377     1   0.10969 276646.080000
   1376   1378     1   0.10969 276646.080000
   1379   1380     1   0.10969 276646.080000
   1379   1381     1   0.10969 276646.080000
   1382   1383     1   0.10969 276646.080000
   1382   1384     1   0.10969 276646.080000
   1385   1386     1   0.10969 276646.080000
   1385   1387     1   0.10969 276646.080000
   1388   1389     1   0.10969 276646.080000
   1388   1390     1   0.10969 276646.080000
   1393   1394     1   0.10969 276646.080000
   1393   1395     1   0.10969 276646.080000
   1396   1397     1   0.10969 276646.080000
   1396   1398     1   0.10969 276646.080000
   1399   1400     1   0.10969 276646.080000
   1399   1401     1   0.10969 276646.080000
   1402   1403     1   0.10969 276646.080000
   1402   1404     1   0.10969 276646.080000
   1405   1406     1   0.10969 276646.080000
   1405   1407     1   0.10969 276646.080000
   1408   1409     1   0.10969 276646.080000
   1408   1410     1   0.10969 276646.080000
   1411   1412     1   0.10969 276646.080000
   1411   1413     1   0.10969 276646.080000
   1414   1415     1   0.10969 276646.080000
   1414   1416     1   0.10969 276646.080000
   1417   1418     1   0.10969 276646.080000
   1417   1419     1   0.10969 276646.080000
   1422   1423     1   0.10969 276646.080000
   1422   1424     1   0.10969 276646.080000
   1425   1426     1   0.10969 276646.080000
   1425   1427     1   0.10969 276646.080000
   1428   1429     1   0.10969 276646.080000
   1428   1430     1   0.10969 276646.080000
   1431   1432     1   0.10969 276646.080000
   1431   1433     1   0.10969 276646.080000
   1434   1435     1   0.10969 276646.080000
   1434   1436     1   0.10969 276646.080000
   1437   1438     1   0.10969 276646.080000
   1437   1439     1   0.10969 276646.080000
   1440   1441     1   0.10969 276646.080000
   1440   1442     1   0.10969 276646.080000
   1443   1444     1   0.10969 276646.080000
   1443   1445     1   0.10969 276646.080000
   1446   1447     1   0.10969 276646.080000
   1446   1448     1   0.10969 276646.080000
   1451   1452     1   0.10969 276646.080000
   1451   1453     1   0.10969 276646.080000
   1454   1455     1   0.10969 276646.080000
   1454   1456     1   0.10969 276646.080000
   1457   1458     1   0.10969 276646.080000
   1457   1459     1   0.10969 276646.080000
   1460   1461     1   0.10969 276646.080000
   1460   1462     1   0.10969 276646.080000
   1463   1464     1   0.10969 276646.080000
   1463   1465     1   0.10969 276646.080000
   1466   1467     1   0.10969 276646.080000
   1466   1468     1   0.10969 276646.080000
   1469   1470     1   0.10969 276646.080000
   1469   1471     1   0.10969 276646.080000
   1472   1473     1   0.10969 276646.080000
   1472   1474     1   0.10969 276646.080000
   1475   1476     1   0.10969 276646.080000
   1475   1477     1   0.10969 276646.080000
   1480   1481     1   0.10969 276646.080000
   1480   1482     1   0.10969 276646.080000
   1483   1484     1   0.10969 276646.080000
   1483   1485     1   0.10969 276646.080000
   1486   1487     1   0.10969 276646.080000
   1486   1488     1   0.10969 276646.080000
   1489   1490     1   0.10969 276646.080000
   1489   1491     1   0.10969 276646.080000
   1492   1493     1   0.10969 276646.080000
   1492   1494     1   0.10969 276646.080000
   1495   1496     1   0.10969 276646.080000
   1495   1497     1   0.10969 276646.080000
   1498   1499     1   0.10969 276646.080000
   1498   1500     1   0.10969 276646.080000
   1501   1502     1   0.10969 276646.080000
   1501   1503     1   0.10969 276646.080000
   1504   1505     1   0.10969 276646.080000
   1504   1506     1   0.10969 276646.080000
   1509   1510     1   0.10969 276646.080000
   1509   1511     1   0.10969 276646.080000
   1512   1513     1   0.10969 276646.080000
   1512   1514     1   0.10969 276646.080000
   1515   1516     1   0.10969 276646.080000
   1515   1517     1   0.10969 276646.080000
   1518   1519     1   0.10969 276646.080000
   1518   1520     1   0.10969 276646.080000
   1521   1522     1   0.10969 276646.080000
   1521   1523     1   0.10969 276646.080000
   1524   1525     1   0.10969 276646.080000
   1524   1526     1   0.10969 276646.080000
   1527   1528     1   0.10969 276646.080000
   1527   1529     1   0.10969 276646.080000
   1530   1531     1   0.10969 276646.080000
   1530   1532     1   0.10969 276646.080000
   1533   1534     1   0.10969 276646.080000
   1533   1535     1   0.10969 276646.080000
   1538   1539     1   0.10969 276646.080000
   1538   1540     1   0.10969 276646.080000
   1541   1542     1   0.10969 276646.080000
   1541   1543     1   0.10969 276646.080000
   1544   1545     1   0.10969 276646.080000
   1544   1546     1   0.10969 276646.080000
   1547   1548     1   0.10969 276646.080000
   1547   1549     1   0.10969 276646.080000
   1550   1551     1   0.10969 276646.080000
   1550   1552     1   0.10969 276646.080000
   1553   1554     1   0.10969 276646.080000
   1553   1555     1   0.10969 276646.080000
   1556   1557     1   0.10969 276646.080000
   1556   1558     1   0.10969 276646.080000
   1559   1560     1   0.10969 276646.080000
   1559   1561     1   0.10969 276646.080000
   1562   1563     1   0.10969 276646.080000
   1562   1564     1   0.10969 276646.080000
   1567   1568     1   0.10969 276646.080000
   1567   1569     1   0.10969 276646.080000
   1570   1571     1   0.10969 276646.080000
   1570   1572     1   0.10969 276646.080000
   1573   1574     1   0.10969 276646.080000
   1573   1575     1   0.10969 276646.080000
   1576   1577     1   0.10969 276646.080000
   1576   1578     1   0.10969 276646.080000
   1579   1580     1   0.10969 276646.080000
   1579   1581     1   0.10969 276646.080000
   1582   1583     1   0.10969 276646.080000
   1582   1584     1   0.10969 276646.080000
   1585   1586     1   0.10969 276646.080000
   1585   1587     1   0.10969 276646.080000
   1588   1589     1   0.10969 276646.080000
   1588   1590     1   0.10969 276646.080000
   1591   1592     1   0.10969 276646.080000
   1591   1593     1   0.10969 276646.080000
   1596   1597     1   0.10969 276646.080000
   1596   1598     1   0.10969 276646.080000
   1599   1600     1   0.10969 276646.080000
   1599   1601     1   0.10969 276646.080000
   1602   1603     1   0.10969 276646.080000
   1602   1604     1   0.10969 276646.080000
   1605   1606     1   0.10969 276646.080000
   1605   1607     1   0.10969 276646.080000
   1608   1609     1   0.10969 276646.080000
   1608   1610     1   0.10969 276646.080000
   1611   1612     1   0.10969 276646.080000
   1611   1613     1   0.10969 276646.080000
   1614   1615     1   0.10969 276646.080000
   1614   1616     1   0.10969 276646.080000
   1617   1618     1   0.10969 276646.080000
   1617   1619     1   0.10969 276646.080000
   1620   1621     1   0.10969 276646.080000
   1620   1622     1   0.10969 276646.080000
   1625   1626     1   0.10969 276646.080000
   1625   1627     1   0.10969 276646.080000
   1628   1629     1   0.10969 276646.080000
   1628   1630     1   0.10969 276646.080000
   1631   1632     1   0.10969 276646.080000
   1631   1633     1   0.10969 276646.080000
   1634   1635     1   0.10969 276646.080000
   1634   1636     1   0.10969 276646.080000
   1637   1638     1   0.10969 276646.080000
   1637   1639     1   0.10969 276646.080000
   1640   1641     1   0.10969 276646.080000
   1640   1642     1   0.10969 276646.080000
   1643   1644     1   0.10969 276646.080000
   1643   1645     1   0.10969 276646.080000
   1646   1647     1   0.10969 276646.080000
   1646   1648     1   0.10969 276646.080000
   1649   1650     1   0.10969 276646.080000
   1649   1651     1   0.10969 276646.080000
   1654   1655     1   0.10969 276646.080000
   1654   1656     1   0.10969 276646.080000
   1657   1658     1   0.10969 276646.080000
   1657   1659     1   0.10969 276646.080000
   1660   1661     1   0.10969 276646.080000
   1660   1662     1   0.10969 276646.080000
   1663   1664     1   0.10969 276646.080000
   1663   1665     1   0.10969 276646.080000
   1666   1667     1   0.10969 276646.080000
   1666   1668     1   0.10969 276646.080000
   1669   1670     1   0.10969 276646.080000
   1669   1671     1   0.10969 276646.080000
   1672   1673     1   0.10969 276646.080000
   1672   1674     1   0.10969 276646.080000
   1675   1676     1   0.10969 276646.080000
   1675   1677     1   0.10969 276646.080000
   1678   1679     1   0.10969 276646.080000
   1678   1680     1   0.10969 276646.080000
   1683   1684     1   0.10969 276646.080000
   1683   1685     1   0.10969 276646.080000
   1686   1687     1   0.10969 276646.080000
   1686   1688     1   0.10969 276646.080000
   1689   1690     1   0.10969 276646.080000
   1689   1691     1   0.10969 276646.080000
   1692   1693     1   0.10969 276646.080000
   1692   1694     1   0.10969 276646.080000
   1695   1696     1   0.10969 276646.080000
   1695   1697     1   0.10969 276646.080000
   1698   1699     1   0.10969 276646.080000
   1698   1700     1   0.10969 276646.080000
   1701   1702     1   0.10969 276646.080000
   1701   1703     1   0.10969 276646.080000
   1704   1705     1   0.10969 276646.080000
   1704   1706     1   0.10969 276646.080000
   1707   1708     1   0.10969 276646.080000
   1707   1709     1   0.10969 276646.080000
   1712   1713     1   0.10969 276646.080000
   1712   1714     1   0.10969 276646.080000
   1715   1716     1   0.10969 276646.080000
   1715   1717     1   0.10969 276646.080000
   1718   1719     1   0.10969 276646.080000
   1718   1720     1   0.10969 276646.080000
   1721   1722     1   0.10969 276646.080000
   1721   1723     1   0.10969 276646.080000
   1724   1725     1   0.10969 276646.080000
   1724   1726     1   0.10969 276646.080000
   1727   1728     1   0.10969 276646.080000
   1727   1729     1   0.10969 276646.080000
   1730   1731     1   0.10969 276646.080000
   1730   1732     1   0.10969 276646.080000
   1733   1734     1   0.10969 276646.080000
   1733   1735     1   0.10969 276646.080000
   1736   1737     1   0.10969 276646.080000
   1736   1738     1   0.10969 276646.080000
   1741   1742     1   0.10969 276646.080000
   1741   1743     1   0.10969 276646.080000
   1744   1745     1   0.10969 276646.080000
   1744   1746     1   0.10969 276646.080000
   1747   1748     1   0.10969 276646.080000
   1747   1749     1   0.10969 276646.080000
   1750   1751     1   0.10969 276646.080000
   1750   1752     1   0.10969 276646.080000
   1753   1754     1   0.10969 276646.080000
   1753   1755     1   0.10969 276646.080000
   1756   1757     1   0.10969 276646.080000
   1756   1758     1   0.10969 276646.080000
   1759   1760     1   0.10969 276646.080000
   1759   1761     1   0.10969 276646.080000
   1762   1763     1   0.10969 276646.080000
   1762   1764     1   0.10969 276646.080000
   1765   1766     1   0.10969 276646.080000
   1765   1767     1   0.10969 276646.080000
   1770   1771     1   0.10969 276646.080000
   1770   1772     1   0.10969 276646.080000
   1773   1774     1   0.10969 276646.080000
   1773   1775     1   0.10969 276646.080000
   1776   1777     1   0.10969 276646.080000
   1776   1778     1   0.10969 276646.080000
   1779   1780     1   0.10969 276646.080000
   1779   1781     1   0.10969 276646.080000
   1782   1783     1   0.10969 276646.080000
   1782   1784     1   0.10969 276646.080000
   1785   1786     1   0.10969 276646.080000
   1785   1787     1   0.10969 276646.080000
   1788   1789     1   0.10969 276646.080000
   1788   1790     1   0.10969 276646.080000
   1791   1792     1   0.10969 276646.080000
   1791   1793     1   0.10969 276646.080000
   1794   1795     1   0.10969 276646.080000
   1794   1796     1   0.10969 276646.080000
   1799   1800     1   0.10969 276646.080000
   1799   1801     1   0.10969 276646.080000
   1802   1803     1   0.10969 276646.080000
   1802   1804     1   0.10969 276646.080000
   1805   1806     1   0.10969 276646.080000
   1805   1807     1   0.10969 276646.080000
   1808   1809     1   0.10969 276646.080000
   1808   1810     1   0.10969 276646.080000
   1811   1812     1   0.10969 276646.080000
   1811   1813     1   0.10969 276646.080000
   1814   1815     1   0.10969 276646.080000
   1814   1816     1   0.10969 276646.080000
   1817   1818     1   0.10969 276646.080000
   1817   1819     1   0.10969 276646.080000
   1820   1821     1   0.10969 276646.080000
   1820   1822     1   0.10969 276646.080000
   1823   1824     1   0.10969 276646.080000
   1823   1825     1   0.10969 276646.080000
   1828   1829     1   0.10969 276646.080000
   1828   1830     1   0.10969 276646.080000
   1831   1832     1   0.10969 276646.080000
   1831   1833     1   0.10969 276646.080000
   1834   1835     1   0.10969 276646.080000
   1834   1836     1   0.10969 276646.080000
   1837   1838     1   0.10969 276646.080000
   1837   1839     1   0.10969 276646.080000
   1840   1841     1   0.10969 276646.080000
   1840   1842     1   0.10969 276646.080000
   1843   1844     1   0.10969 276646.080000
   1843   1845     1   0.10969 276646.080000
   1846   1847     1   0.10969 276646.080000
   1846   1848     1   0.10969 276646.080000
   1849   1850     1   0.10969 276646.080000
   1849   1851     1   0.10969 276646.080000
   1852   1853     1   0.10969 276646.080000
   1852   1854     1   0.10969 276646.080000
   1857   1858     1   0.10969 276646.080000
   1857   1859     1   0.10969 276646.080000
   1860   1861     1   0.10969 276646.080000
   1860   1862     1   0.10969 276646.080000
   1863   1864     1   0.10969 276646.080000
   1863   1865     1   0.10969 276646.080000
   1866   1867     1   0.10969 276646.080000
   1866   1868     1   0.10969 276646.080000
   1869   1870     1   0.10969 276646.080000
   1869   1871     1   0.10969 276646.080000
   1872   1873     1   0.10969 276646.080000
   1872   1874     1   0.10969 276646.080000
   1875   1876     1   0.10969 276646.080000
   1875   1877     1   0.10969 276646.080000
   1878   1879     1   0.10969 276646.080000
   1878   1880     1   0.10969 276646.080000
   1881   1882     1   0.10969 276646.080000
   1881   1883     1   0.10969 276646.080000
   1886   1887     1   0.10969 276646.080000
   1886   1888     1   0.10969 276646.080000
   1889   1890     1   0.10969 276646.080000
   1889   1891     1   0.10969 276646.080000
   1892   1893     1   0.10969 276646.080000
   1892   1894     1   0.10969 276646.080000
   1895   1896     1   0.10969 276646.080000
   1895   1897     1   0.10969 276646.080000
   1898   1899     1   0.10969 276646.080000
   1898   1900     1   0.10969 276646.080000
   1901   1902     1   0.10969 276646.080000
   1901   1903     1   0.10969 276646.080000
   1904   1905     1   0.10969 276646.080000
   1904   1906     1   0.10969 276646.080000
   1907   1908     1   0.10969 276646.080000
   1907   1909     1   0.10969 276646.080000
   1910   1911     1   0.10969 276646.080000
   1910   1912     1   0.10969 276646.080000
   1915   1916     1   0.10969 276646.080000
   1915   1917     1   0.10969 276646.080000
   1918   1919     1   0.10969 276646.080000
   1918   1920     1   0.10969 276646.080000
   1921   1922     1   0.10969 276646.080000
   1921   1923     1   0.10969 276646.080000
   1924   1925     1   0.10969 276646.080000
   1924   1926     1   0.10969 276646.080000
   1927   1928     1   0.10969 276646.080000
   1927   1929     1   0.10969 276646.080000
   1930   1931     1   0.10969 276646.080000
   1930   1932     1   0.10969 276646.080000
   1933   1934     1   0.10969 276646.080000
   1933   1935     1   0.10969 276646.080000
   1936   1937     1   0.10969 276646.080000
   1936   1938     1   0.10969 276646.080000
   1939   1940     1   0.10969 276646.080000
   1939   1941     1   0.10969 276646.080000
   1944   1945     1   0.10969 276646.080000
   1944   1946     1   0.10969 276646.080000
   1947   1948     1   0.10969 276646.080000
   1947   1949     1   0.10969 276646.080000
   1950   1951     1   0.10969 276646.080000
   1950   1952     1   0.10969 276646.080000
   1953   1954     1   0.10969 276646.080000
   1953   1955     1   0.10969 276646.080000
   1956   1957     1   0.10969 276646.080000
   1956   1958     1   0.10969 276646.080000
   1959   1960     1   0.10969 276646.080000
   1959   1961     1   0.10969 276646.080000
   1962   1963     1   0.10969 276646.080000
   1962   1964     1   0.10969 276646.080000
   1965   1966     1   0.10969 276646.080000
   1965   1967     1   0.10969 276646.080000
   1968   1969     1   0.10969 276646.080000
   1968   1970     1   0.10969 276646.080000
   1973   1974     1   0.10969 276646.080000
   1973   1975     1   0.10969 276646.080000
   1976   1977     1   0.10969 276646.080000
   1976   1978     1   0.10969 276646.080000
   1979   1980     1   0.10969 276646.080000
   1979   1981     1   0.10969 276646.080000
   1982   1983     1   0.10969 276646.080000
   1982   1984     1   0.10969 276646.080000
   1985   1986     1   0.10969 276646.080000
   1985   1987     1   0.10969 276646.080000
   1988   1989     1   0.10969 276646.080000
   1988   1990     1   0.10969 276646.080000
   1991   1992     1   0.10969 276646.080000
   1991   1993     1   0.10969 276646.080000
   1994   1995     1   0.10969 276646.080000
   1994   1996     1   0.10969 276646.080000
   1997   1998     1   0.10969 276646.080000
   1997   1999     1   0.10969 276646.080000
   2002   2003     1   0.10969 276646.080000
   2002   2004     1   0.10969 276646.080000
   2005   2006     1   0.10969 276646.080000
   2005   2007     1   0.10969 276646.080000
   2008   2009     1   0.10969 276646.080000
   2008   2010     1   0.10969 276646.080000
   2011   2012     1   0.10969 276646.080000
   2011   2013     1   0.10969 276646.080000
   2014   2015     1   0.10969 276646.080000
   2014   2016     1   0.10969 276646.080000
   2017   2018     1   0.10969 276646.080000
   2017   2019     1   0.10969 276646.080000
   2020   2021     1   0.10969 276646.080000
   2020   2022     1   0.10969 276646.080000
   2023   2024     1   0.10969 276646.080000
   2023   2025     1   0.10969 276646.080000
   2026   2027     1   0.10969 276646.080000
   2026   2028     1   0.10969 276646.080000
   2031   2032     1   0.10969 276646.080000
   2031   2033     1   0.10969 276646.080000
   2034   2035     1   0.10969 276646.080000
   2034   2036     1   0.10969 276646.080000
   2037   2038     1   0.10969 276646.080000
   2037   2039     1   0.10969 276646.080000
   2040   2041     1   0.10969 276646.080000
   2040   2042     1   0.10969 276646.080000
   2043   2044     1   0.10969 276646.080000
   2043   2045     1   0.10969 276646.080000
   2046   2047     1   0.10969 276646.080000
   2046   2048     1   0.10969 276646.080000
   2049   2050     1   0.10969 276646.080000
   2049   2051     1   0.10969 276646.080000
   2052   2053     1   0.10969 276646.080000
   2052   2054     1   0.10969 276646.080000
   2055   2056     1   0.10969 276646.080000
   2055   2057     1   0.10969 276646.080000
   2060   2061     1   0.10969 276646.080000
   2060   2062     1   0.10969 276646.080000
   2063   2064     1   0.10969 276646.080000
   2063   2065     1   0.10969 276646.080000
   2066   2067     1   0.10969 276646.080000
   2066   2068     1   0.10969 276646.080000
   2069   2070     1   0.10969 276646.080000
   2069   2071     1   0.10969 276646.080000
   2072   2073     1   0.10969 276646.080000
   2072   2074     1   0.10969 276646.080000
   2075   2076     1   0.10969 276646.080000
   2075   2077     1   0.10969 276646.080000
   2078   2079     1   0.10969 276646.080000
   2078   2080     1   0.10969 276646.080000
   2081   2082     1   0.10969 276646.080000
   2081   2083     1   0.10969 276646.080000
   2084   2085     1   0.10969 276646.080000
   2084   2086     1   0.10969 276646.080000
   2089   2090     1   0.10969 276646.080000
   2089   2091     1   0.10969 276646.080000
   2092   2093     1   0.10969 276646.080000
   2092   2094     1   0.10969 276646.080000
   2095   2096     1   0.10969 276646.080000
   2095   2097     1   0.10969 276646.080000
   2098   2099     1   0.10969 276646.080000
   2098   2100     1   0.10969 276646.080000
   2101   2102     1   0.10969 276646.080000
   2101   2103     1   0.10969 276646.080000
   2104   2105     1   0.10969 276646.080000
   2104   2106     1   0.10969 276646.080000
   2107   2108     1   0.10969 276646.080000
   2107   2109     1   0.10969 276646.080000
   2110   2111     1   0.10969 276646.080000
   2110   2112     1   0.10969 276646.080000
   2113   2114     1   0.10969 276646.080000
   2113   2115     1   0.10969 276646.080000
   2118   2119     1   0.10969 276646.080000
   2118   2120     1   0.10969 276646.080000
   2121   2122     1   0.10969 276646.080000
   2121   2123     1   0.10969 276646.080000
   2124   2125     1   0.10969 276646.080000
   2124   2126     1   0.10969 276646.080000
   2127   2128     1   0.10969 276646.080000
   2127   2129     1   0.10969 276646.080000
   2130   2131     1   0.10969 276646.080000
   2130   2132     1   0.10969 276646.080000
   2133   2134     1   0.10969 276646.080000
   2133   2135     1   0.10969 276646.080000
   2136   2137     1   0.10969 276646.080000
   2136   2138     1   0.10969 276646.080000
   2139   2140     1   0.10969 276646.080000
   2139   2141     1   0.10969 276646.080000
   2142   2143     1   0.10969 276646.080000
   2142   2144     1   0.10969 276646.080000
   2147   2148     1   0.10969 276646.080000
   2147   2149     1   0.10969 276646.080000
   2150   2151     1   0.10969 276646.080000
   2150   2152     1   0.10969 276646.080000
   2153   2154     1   0.10969 276646.080000
   2153   2155     1   0.10969 276646.080000
   2156   2157     1   0.10969 276646.080000
   2156   2158     1   0.10969 276646.080000
   2159   2160     1   0.10969 276646.080000
   2159   2161     1   0.10969 276646.080000
   2162   2163     1   0.10969 276646.080000
   2162   2164     1   0.10969 276646.080000
   2165   2166     1   0.10969 276646.080000
   2165   2167     1   0.10969 276646.080000
   2168   2169     1   0.10969 276646.080000
   2168   2170     1   0.10969 276646.080000
   2171   2172     1   0.10969 276646.080000
   2171   2173     1   0.10969 276646.080000
   2176   2177     1   0.10969 276646.080000
   2176   2178     1   0.10969 276646.080000
   2179   2180     1   0.10969 276646.080000
   2179   2181     1   0.10969 276646.080000
   2182   2183     1   0.10969 276646.080000
   2182   2184     1   0.10969 276646.080000
   2185   2186     1   0.10969 276646.080000
   2185   2187     1   0.10969 276646.080000
   2188   2189     1   0.10969 276646.080000
   2188   2190     1   0.10969 276646.080000
   2191   2192     1   0.10969 276646.080000
   2191   2193     1   0.10969 276646.080000
   2194   2195     1   0.10969 276646.080000
   2194   2196     1   0.10969 276646.080000
   2197   2198     1   0.10969 276646.080000
   2197   2199     1   0.10969 276646.080000
   2200   2201     1   0.10969 276646.080000
   2200   2202     1   0.10969 276646.080000
   2205   2206     1   0.10969 276646.080000
   2205   2207     1   0.10969 276646.080000
   2208   2209     1   0.10969 276646.080000
   2208   2210     1   0.10969 276646.080000
   2211   2212     1   0.10969 276646.080000
   2211   2213     1   0.10969 276646.080000
   2214   2215     1   0.10969 276646.080000
   2214   2216     1   0.10969 276646.080000
   2217   2218     1   0.10969 276646.080000
   2217   2219     1   0.10969 276646.080000
   2220   2221     1   0.10969 276646.080000
   2220   2222     1   0.10969 276646.080000
   2223   2224     1   0.10969 276646.080000
   2223   2225     1   0.10969 276646.080000
   2226   2227     1   0.10969 276646.080000
   2226   2228     1   0.10969 276646.080000
   2229   2230     1   0.10969 276646.080000
   2229   2231     1   0.10969 276646.080000
   2234   2235     1   0.10969 276646.080000
   2234   2236     1   0.10969 276646.080000
   2237   2238     1   0.10969 276646.080000
   2237   2239     1   0.10969 276646.080000
   2240   2241     1   0.10969 276646.080000
   2240   2242     1   0.10969 276646.080000
   2243   2244     1   0.10969 276646.080000
   2243   2245     1   0.10969 276646.080000
   2246   2247     1   0.10969 276646.080000
   2246   2248     1   0.10969 276646.080000
   2249   2250     1   0.10969 276646.080000
   2249   2251     1   0.10969 276646.080000
   2252   2253     1   0.10969 276646.080000
   2252   2254     1   0.10969 276646.080000
   2255   2256     1   0.10969 276646.080000
   2255   2257     1   0.10969 276646.080000
   2258   2259     1   0.10969 276646.080000
   2258   2260     1   0.10969 276646.080000
   2263   2264     1   0.10969 276646.080000
   2263   2265     1   0.10969 276646.080000
   2266   2267     1   0.10969 276646.080000
   2266   2268     1   0.10969 276646.080000
   2269   2270     1   0.10969 276646.080000
   2269   2271     1   0.10969 276646.080000
   2272   2273     1   0.10969 276646.080000
   2272   2274     1   0.10969 276646.080000
   2275   2276     1   0.10969 276646.080000
   2275   2277     1   0.10969 276646.080000
   2278   2279     1   0.10969 276646.080000
   2278   2280     1   0.10969 276646.080000
   2281   2282     1   0.10969 276646.080000
   2281   2283     1   0.10969 276646.080000
   2284   2285     1   0.10969 276646.080000
   2284   2286     1   0.10969 276646.080000
   2287   2288     1   0.10969 276646.080000
   2287   2289     1   0.10969 276646.080000
   2292   2293     1   0.10969 276646.080000
   2292   2294     1   0.10969 276646.080000
   2295   2296     1   0.10969 276646.080000
   2295   2297     1   0.10969 276646.080000
   2298   2299     1   0.10969 276646.080000
   2298   2300     1   0.10969 276646.080000
   2301   2302     1   0.10969 276646.080000
   2301   2303     1   0.10969 276646.080000
   2304   2305     1   0.10969 276646.080000
   2304   2306     1   0.10969 276646.080000
   2307   2308     1   0.10969 276646.080000
   2307   2309     1   0.10969 276646.080000
   2310   2311     1   0.10969 276646.080000
   2310   2312     1   0.10969 276646.080000
   2313   2314     1   0.10969 276646.080000
   2313   2315     1   0.10969 276646.080000
   2316   2317     1   0.10969 276646.080000
   2316   2318     1   0.10969 276646.080000
   2321   2322     1   0.10969 276646.080000
   2321   2323     1   0.10969 276646.080000
   2324   2325     1   0.10969 276646.080000
   2324   2326     1   0.10969 276646.080000
   2327   2328     1   0.10969 276646.080000
   2327   2329     1   0.10969 276646.080000
   2330   2331     1   0.10969 276646.080000
   2330   2332     1   0.10969 276646.080000
   2333   2334     1   0.10969 276646.080000
   2333   2335     1   0.10969 276646.080000
   2336   2337     1   0.10969 276646.080000
   2336   2338     1   0.10969 276646.080000
   2339   2340     1   0.10969 276646.080000
   2339   2341     1   0.10969 276646.080000
   2342   2343     1   0.10969 276646.080000
   2342   2344     1   0.10969 276646.080000
   2345   2346     1   0.10969 276646.080000
   2345   2347     1   0.10969 276646.080000
   2350   2351     1   0.10969 276646.080000
   2350   2352     1   0.10969 276646.080000
   2353   2354     1   0.10969 276646.080000
   2353   2355     1   0.10969 276646.080000
   2356   2357     1   0.10969 276646.080000
   2356   2358     1   0.10969 276646.080000
   2359   2360     1   0.10969 276646.080000
   2359   2361     1   0.10969 276646.080000
   2362   2363     1   0.10969 276646.080000
   2362   2364     1   0.10969 276646.080000
   2365   2366     1   0.10969 276646.080000
   2365   2367     1   0.10969 276646.080000
   2368   2369     1   0.10969 276646.080000
   2368   2370     1   0.10969 276646.080000
   2371   2372     1   0.10969 276646.080000
   2371   2373     1   0.10969 276646.080000
   2374   2375     1   0.10969 276646.080000
   2374   2376     1   0.10969 276646.080000
   2379   2380     1   0.10969 276646.080000
   2379   2381     1   0.10969 276646.080000
   2382   2383     1   0.10969 276646.080000
   2382   2384     1   0.10969 276646.080000
   2385   2386     1   0.10969 276646.080000
   2385   2387     1   0.10969 276646.080000
   2388   2389     1   0.10969 276646.080000
   2388   2390     1   0.10969 276646.080000
   2391   2392     1   0.10969 276646.080000
   2391   2393     1   0.10969 276646.080000
   2394   2395     1   0.10969 276646.080000
   2394   2396     1   0.10969 276646.080000
   2397   2398     1   0.10969 276646.080000
   2397   2399     1   0.10969 276646.080000
   2400   2401     1   0.10969 276646.080000
   2400   2402     1   0.10969 276646.080000
   2403   2404     1   0.10969 276646.080000
   2403   2405     1   0.10969 276646.080000
   2408   2409     1   0.10969 276646.080000
   2408   2410     1   0.10969 276646.080000
   2411   2412     1   0.10969 276646.080000
   2411   2413     1   0.10969 276646.080000
   2414   2415     1   0.10969 276646.080000
   2414   2416     1   0.10969 276646.080000
   2417   2418     1   0.10969 276646.080000
   2417   2419     1   0.10969 276646.080000
   2420   2421     1   0.10969 276646.080000
   2420   2422     1   0.10969 276646.080000
   2423   2424     1   0.10969 276646.080000
   2423   2425     1   0.10969 276646.080000
   2426   2427     1   0.10969 276646.080000
   2426   2428     1   0.10969 276646.080000
   2429   2430     1   0.10969 276646.080000
   2429   2431     1   0.10969 276646.080000
   2432   2433     1   0.10969 276646.080000
   2432   2434     1   0.10969 276646.080000
   2437   2438     1   0.10969 276646.080000
   2437   2439     1   0.10969 276646.080000
   2440   2441     1   0.10969 276646.080000
   2440   2442     1   0.10969 276646.080000
   2443   2444     1   0.10969 276646.080000
   2443   2445     1   0.10969 276646.080000
   2446   2447     1   0.10969 276646.080000
   2446   2448     1   0.10969 276646.080000
   2449   2450     1   0.10969 276646.080000
   2449   2451     1   0.10969 276646.080000
   2452   2453     1   0.10969 276646.080000
   2452   2454     1   0.10969 276646.080000
   2455   2456     1   0.10969 276646.080000
   2455   2457     1   0.10969 276646.080000
   2458   2459     1   0.10969 276646.080000
   2458   2460     1   0.10969 276646.080000
   2461   2462     1   0.10969 276646.080000
   2461   2463     1   0.10969 276646.080000
   2466   2467     1   0.10969 276646.080000
   2466   2468     1   0.10969 276646.080000
   2469   2470     1   0.10969 276646.080000
   2469   2471     1   0.10969 276646.080000
   2472   2473     1   0.10969 276646.080000
   2472   2474     1   0.10969 276646.080000
   2475   2476     1   0.10969 276646.080000
   2475   2477     1   0.10969 276646.080000
   2478   2479     1   0.10969 276646.080000
   2478   2480     1   0.10969 276646.080000
   2481   2482     1   0.10969 276646.080000
   2481   2483     1   0.10969 276646.080000
   2484   2485     1   0.10969 276646.080000
   2484   2486     1   0.10969 276646.080000
   2487   2488     1   0.10969 276646.080000
   2487   2489     1   0.10969 276646.080000
   2490   2491     1   0.10969 276646.080000
   2490   2492     1   0.10969 276646.080000
   2495   2496     1   0.10969 276646.080000
   2495   2497     1   0.10969 276646.080000
   2498   2499     1   0.10969 276646.080000
   2498   2500     1   0.10969 276646.080000
   2501   2502     1   0.10969 276646.080000
   2501   2503     1   0.10969 276646.080000
   2504   2505     1   0.10969 276646.080000
   2504   2506     1   0.10969 276646.080000
   2507   2508     1   0.10969 276646.080000
   2507   2509     1   0.10969 276646.080000
   2510   2511     1   0.10969 276646.080000
   2510   2512     1   0.10969 276646.080000
   2513   2514     1   0.10969 276646.080000
   2513   2515     1   0.10969 276646.080000
   2516   2517     1   0.10969 276646.080000
   2516   2518     1   0.10969 276646.080000
   2519   2520     1   0.10969 276646.080000
   2519   2521     1   0.10969 276646.080000
   2524   2525     1   0.10969 276646.080000
   2524   2526     1   0.10969 276646.080000
   2527   2528     1   0.10969 276646.080000
   2527   2529     1   0.10969 276646.080000
   2530   2531     1   0.10969 276646.080000
   2530   2532     1   0.10969 276646.080000
   2533   2534     1   0.10969 276646.080000
   2533   2535     1   0.10969 276646.080000
   2536   2537     1   0.10969 276646.080000
   2536   2538     1   0.10969 276646.080000
   2539   2540     1   0.10969 276646.080000
   2539   2541     1   0.10969 276646.080000
   2542   2543     1   0.10969 276646.080000
   2542   2544     1   0.10969 276646.080000
   2545   2546     1   0.10969 276646.080000
   2545   2547     1   0.10969 276646.080000
   2548   2549     1   0.10969 276646.080000
   2548   2550     1   0.10969 276646.080000
   2553   2554     1   0.10969 276646.080000
   2553   2555     1   0.10969 276646.080000
   2556   2557     1   0.10969 276646.080000
   2556   2558     1   0.10969 276646.080000
   2559   2560     1   0.10969 276646.080000
   2559   2561     1   0.10969 276646.080000
   2562   2563     1   0.10969 276646.080000
   2562   2564     1   0.10969 276646.080000
   2565   2566     1   0.10969 276646.080000
   2565   2567     1   0.10969 276646.080000
   2568   2569     1   0.10969 276646.080000
   2568   2570     1   0.10969 276646.080000
   2571   2572     1   0.10969 276646.080000
   2571   2573     1   0.10969 276646.080000
   2574   2575     1   0.10969 276646.080000
   2574   2576     1   0.10969 276646.080000
   2577   2578     1   0.10969 276646.080000
   2577   2579     1   0.10969 276646.080000
   2582   2583     1   0.10969 276646.080000
   2582   2584     1   0.10969 276646.080000
   2585   2586     1   0.10969 276646.080000
   2585   2587     1   0.10969 276646.080000
   2588   2589     1   0.10969 276646.080000
   2588   2590     1   0.10969 276646.080000
   2591   2592     1   0.10969 276646.080000
   2591   2593     1   0.10969 276646.080000
   2594   2595     1   0.10969 276646.080000
   2594   2596     1   0.10969 276646.080000
   2597   2598     1   0.10969 276646.080000
   2597   2599     1   0.10969 276646.080000
   2600   2601     1   0.10969 276646.080000
   2600   2602     1   0.10969 276646.080000
   2603   2604     1   0.10969 276646.080000
   2603   2605     1   0.10969 276646.080000
   2606   2607     1   0.10969 276646.080000
   2606   2608     1   0.10969 276646.080000
   2611   2612     1   0.10969 276646.080000
   2611   2613     1   0.10969 276646.080000
   2614   2615     1   0.10969 276646.080000
   2614   2616     1   0.10969 276646.080000
   2617   2618     1   0.10969 276646.080000
   2617   2619     1   0.10969 276646.080000
   2620   2621     1   0.10969 276646.080000
   2620   2622     1   0.10969 276646.080000
   2623   2624     1   0.10969 276646.080000
   2623   2625     1   0.10969 276646.080000
   2626   2627     1   0.10969 276646.080000
   2626   2628     1   0.10969 276646.080000
   2629   2630     1   0.10969 276646.080000
   2629   2631     1   0.10969 276646.080000
   2632   2633     1   0.10969 276646.080000
   2632   2634     1   0.10969 276646.080000
   2635   2636     1   0.10969 276646.080000
   2635   2637     1   0.10969 276646.080000
   2640   2641     1   0.10969 276646.080000
   2640   2642     1   0.10969 276646.080000
   2643   2644     1   0.10969 276646.080000
   2643   2645     1   0.10969 276646.080000
   2646   2647     1   0.10969 276646.080000
   2646   2648     1   0.10969 276646.080000
   2649   2650     1   0.10969 276646.080000
   2649   2651     1   0.10969 276646.080000
   2652   2653     1   0.10969 276646.080000
   2652   2654     1   0.10969 276646.080000
   2655   2656     1   0.10969 276646.080000
   2655   2657     1   0.10969 276646.080000
   2658   2659     1   0.10969 276646.080000
   2658   2660     1   0.10969 276646.080000
   2661   2662     1   0.10969 276646.080000
   2661   2663     1   0.10969 276646.080000
   2664   2665     1   0.10969 276646.080000
   2664   2666     1   0.10969 276646.080000
   2669   2670     1   0.10969 276646.080000
   2669   2671     1   0.10969 276646.080000
   2672   2673     1   0.10969 276646.080000
   2672   2674     1   0.10969 276646.080000
   2675   2676     1   0.10969 276646.080000
   2675   2677     1   0.10969 276646.080000
   2678   2679     1   0.10969 276646.080000
   2678   2680     1   0.10969 276646.080000
   2681   2682     1   0.10969 276646.080000
   2681   2683     1   0.10969 276646.080000
   2684   2685     1   0.10969 276646.080000
   2684   2686     1   0.10969 276646.080000
   2687   2688     1   0.10969 276646.080000
   2687   2689     1   0.10969 276646.080000
   2690   2691     1   0.10969 276646.080000
   2690   2692     1   0.10969 276646.080000
   2693   2694     1   0.10969 276646.080000
   2693   2695     1   0.10969 276646.080000
   2698   2699     1   0.10969 276646.080000
   2698   2700     1   0.10969 276646.080000
   2701   2702     1   0.10969 276646.080000
   2701   2703     1   0.10969 276646.080000
   2704   2705     1   0.10969 276646.080000
   2704   2706     1   0.10969 276646.080000
   2707   2708     1   0.10969 276646.080000
   2707   2709     1   0.10969 276646.080000
   2710   2711     1   0.10969 276646.080000
   2710   2712     1   0.10969 276646.080000
   2713   2714     1   0.10969 276646.080000
   2713   2715     1   0.10969 276646.080000
   2716   2717     1   0.10969 276646.080000
   2716   2718     1   0.10969 276646.080000
   2719   2720     1   0.10969 276646.080000
   2719   2721     1   0.10969 276646.080000
   2722   2723     1   0.10969 276646.080000
   2722   2724     1   0.10969 276646.080000
   2727   2728     1   0.10969 276646.080000
   2727   2729     1   0.10969 276646.080000
   2730   2731     1   0.10969 276646.080000
   2730   2732     1   0.10969 276646.080000
   2733   2734     1   0.10969 276646.080000
   2733   2735     1   0.10969 276646.080000
   2736   2737     1   0.10969 276646.080000
   2736   2738     1   0.10969 276646.080000
   2739   2740     1   0.10969 276646.080000
   2739   2741     1   0.10969 276646.080000
   2742   2743     1   0.10969 276646.080000
   2742   2744     1   0.10969 276646.080000
   2745   2746     1   0.10969 276646.080000
   2745   2747     1   0.10969 276646.080000
   2748   2749     1   0.10969 276646.080000
   2748   2750     1   0.10969 276646.080000
   2751   2752     1   0.10969 276646.080000
   2751   2753     1   0.10969 276646.080000
   2756   2757     1   0.10969 276646.080000
   2756   2758     1   0.10969 276646.080000
   2759   2760     1   0.10969 276646.080000
   2759   2761     1   0.10969 276646.080000
   2762   2763     1   0.10969 276646.080000
   2762   2764     1   0.10969 276646.080000
   2765   2766     1   0.10969 276646.080000
   2765   2767     1   0.10969 276646.080000
   2768   2769     1   0.10969 276646.080000
   2768   2770     1   0.10969 276646.080000
   2771   2772     1   0.10969 276646.080000
   2771   2773     1   0.10969 276646.080000
   2774   2775     1   0.10969 276646.080000
   2774   2776     1   0.10969 276646.080000
   2777   2778     1   0.10969 276646.080000
   2777   2779     1   0.10969 276646.080000
   2780   2781     1   0.10969 276646.080000
   2780   2782     1   0.10969 276646.080000
   2785   2786     1   0.10969 276646.080000
   2785   2787     1   0.10969 276646.080000
   2788   2789     1   0.10969 276646.080000
   2788   2790     1   0.10969 276646.080000
   2791   2792     1   0.10969 276646.080000
   2791   2793     1   0.10969 276646.080000
   2794   2795     1   0.10969 276646.080000
   2794   2796     1   0.10969 276646.080000
   2797   2798     1   0.10969 276646.080000
   2797   2799     1   0.10969 276646.080000
   2800   2801     1   0.10969 276646.080000
   2800   2802     1   0.10969 276646.080000
   2803   2804     1   0.10969 276646.080000
   2803   2805     1   0.10969 276646.080000
   2806   2807     1   0.10969 276646.080000
   2806   2808     1   0.10969 276646.080000
   2809   2810     1   0.10969 276646.080000
   2809   2811     1   0.10969 276646.080000
   2814   2815     1   0.10969 276646.080000
   2814   2816     1   0.10969 276646.080000
   2817   2818     1   0.10969 276646.080000
   2817   2819     1   0.10969 276646.080000
   2820   2821     1   0.10969 276646.080000
   2820   2822     1   0.10969 276646.080000
   2823   2824     1   0.10969 276646.080000
   2823   2825     1   0.10969 276646.080000
   2826   2827     1   0.10969 276646.080000
   2826   2828     1   0.10969 276646.080000
   2829   2830     1   0.10969 276646.080000
   2829   2831     1   0.10969 276646.080000
   2832   2833     1   0.10969 276646.080000
   2832   2834     1   0.10969 276646.080000
   2835   2836     1   0.10969 276646.080000
   2835   2837     1   0.10969 276646.080000
   2838   2839     1   0.10969 276646.080000
   2838   2840     1   0.10969 276646.080000
   2843   2844     1   0.10969 276646.080000
   2843   2845     1   0.10969 276646.080000
   2846   2847     1   0.10969 276646.080000
   2846   2848     1   0.10969 276646.080000
   2849   2850     1   0.10969 276646.080000
   2849   2851     1   0.10969 276646.080000
   2852   2853     1   0.10969 276646.080000
   2852   2854     1   0.10969 276646.080000
   2855   2856     1   0.10969 276646.080000
   2855   2857     1   0.10969 276646.080000
   2858   2859     1   0.10969 276646.080000
   2858   2860     1   0.10969 276646.080000
   2861   2862     1   0.10969 276646.080000
   2861   2863     1   0.10969 276646.080000
   2864   2865     1   0.10969 276646.080000
   2864   2866     1   0.10969 276646.080000
   2867   2868     1   0.10969 276646.080000
   2867   2869     1   0.10969 276646.080000
   2872   2873     1   0.10969 276646.080000
   2872   2874     1   0.10969 276646.080000
   2875   2876     1   0.10969 276646.080000
   2875   2877     1   0.10969 276646.080000
   2878   2879     1   0.10969 276646.080000
   2878   2880     1   0.10969 276646.080000
   2881   2882     1   0.10969 276646.080000
   2881   2883     1   0.10969 276646.080000
   2884   2885     1   0.10969 276646.080000
   2884   2886     1   0.10969 276646.080000
   2887   2888     1   0.10969 276646.080000
   2887   2889     1   0.10969 276646.080000
   2890   2891     1   0.10969 276646.080000
   2890   2892     1   0.10969 276646.080000
   2893   2894     1   0.10969 276646.080000
   2893   2895     1   0.10969 276646.080000
   2896   2897     1   0.10969 276646.080000
   2896   2898     1   0.10969 276646.080000
   2901   2902     1   0.10969 276646.080000
   2901   2903     1   0.10969 276646.080000
   2904   2905     1   0.10969 276646.080000
   2904   2906     1   0.10969 276646.080000
   2907   2908     1   0.10969 276646.080000
   2907   2909     1   0.10969 276646.080000
   2910   2911     1   0.10969 276646.080000
   2910   2912     1   0.10969 276646.080000
   2913   2914     1   0.10969 276646.080000
   2913   2915     1   0.10969 276646.080000
   2916   2917     1   0.10969 276646.080000
   2916   2918     1   0.10969 276646.080000
   2919   2920     1   0.10969 276646.080000
   2919   2921     1   0.10969 276646.080000
   2922   2923     1   0.10969 276646.080000
   2922   2924     1   0.10969 276646.080000
   2925   2926     1   0.10969 276646.080000
   2925   2927     1   0.10969 276646.080000
   2930   2931     1   0.10969 276646.080000
   2930   2932     1   0.10969 276646.080000
   2933   2934     1   0.10969 276646.080000
   2933   2935     1   0.10969 276646.080000
   2936   2937     1   0.10969 276646.080000
   2936   2938     1   0.10969 276646.080000
   2939   2940     1   0.10969 276646.080000
   2939   2941     1   0.10969 276646.080000
   2942   2943     1   0.10969 276646.080000
   2942   2944     1   0.10969 276646.080000
   2945   2946     1   0.10969 276646.080000
   2945   2947     1   0.10969 276646.080000
   2948   2949     1   0.10969 276646.080000
   2948   2950     1   0.10969 276646.080000
   2951   2952     1   0.10969 276646.080000
   2951   2953     1   0.10969 276646.080000
   2954   2955     1   0.10969 276646.080000
   2954   2956     1   0.10969 276646.080000
   2959   2960     1   0.10969 276646.080000
   2959   2961     1   0.10969 276646.080000
   2962   2963     1   0.10969 276646.080000
   2962   2964     1   0.10969 276646.080000
   2965   2966     1   0.10969 276646.080000
   2965   2967     1   0.10969 276646.080000
   2968   2969     1   0.10969 276646.080000
   2968   2970     1   0.10969 276646.080000
   2971   2972     1   0.10969 276646.080000
   2971   2973     1   0.10969 276646.080000
   2974   2975     1   0.10969 276646.080000
   2974   2976     1   0.10969 276646.080000
   2977   2978     1   0.10969 276646.080000
   2977   2979     1   0.10969 276646.080000
   2980   2981     1   0.10969 276646.080000
   2980   2982     1   0.10969 276646.080000
   2983   2984     1   0.10969 276646.080000
   2983   2985     1   0.10969 276646.080000
   2988   2989     1   0.10969 276646.080000
   2988   2990     1   0.10969 276646.080000
   2991   2992     1   0.10969 276646.080000
   2991   2993     1   0.10969 276646.080000
   2994   2995     1   0.10969 276646.080000
   2994   2996     1   0.10969 276646.080000
   2997   2998     1   0.10969 276646.080000
   2997   2999     1   0.10969 276646.080000
   3000   3001     1   0.10969 276646.080000
   3000   3002     1   0.10969 276646.080000
   3003   3004     1   0.10969 276646.080000
   3003   3005     1   0.10969 276646.080000
   3006   3007     1   0.10969 276646.080000
   3006   3008     1   0.10969 276646.080000
   3009   3010     1   0.10969 276646.080000
   3009   3011     1   0.10969 276646.080000
   3012   3013     1   0.10969 276646.080000
   3012   3014     1   0.10969 276646.080000
   3017   3018     1   0.10969 276646.080000
   3017   3019     1   0.10969 276646.080000
   3020   3021     1   0.10969 276646.080000
   3020   3022     1   0.10969 276646.080000
   3023   3024     1   0.10969 276646.080000
   3023   3025     1   0.10969 276646.080000
   3026   3027     1   0.10969 276646.080000
   3026   3028     1   0.10969 276646.080000
   3029   3030     1   0.10969 276646.080000
   3029   3031     1   0.10969 276646.080000
   3032   3033     1   0.10969 276646.080000
   3032   3034     1   0.10969 276646.080000
   3035   3036     1   0.10969 276646.080000
   3035   3037     1   0.10969 276646.080000
   3038   3039     1   0.10969 276646.080000
   3038   3040     1   0.10969 276646.080000
   3041   3042     1   0.10969 276646.080000
   3041   3043     1   0.10969 276646.080000
   3046   3047     1   0.10969 276646.080000
   3046   3048     1   0.10969 276646.080000
   3049   3050     1   0.10969 276646.080000
   3049   3051     1   0.10969 276646.080000
   3052   3053     1   0.10969 276646.080000
   3052   3054     1   0.10969 276646.080000
   3055   3056     1   0.10969 276646.080000
   3055   3057     1   0.10969 276646.080000
   3058   3059     1   0.10969 276646.080000
   3058   3060     1   0.10969 276646.080000
   3061   3062     1   0.10969 276646.080000
   3061   3063     1   0.10969 276646.080000
   3064   3065     1   0.10969 276646.080000
   3064   3066     1   0.10969 276646.080000
   3067   3068     1   0.10969 276646.080000
   3067   3069     1   0.10969 276646.080000
   3070   3071     1   0.10969 276646.080000
   3070   3072     1   0.10969 276646.080000
   3075   3076     1   0.10969 276646.080000
   3075   3077     1   0.10969 276646.080000
   3078   3079     1   0.10969 276646.080000
   3078   3080     1   0.10969 276646.080000
   3081   3082     1   0.10969 276646.080000
   3081   3083     1   0.10969 276646.080000
   3084   3085     1   0.10969 276646.080000
   3084   3086     1   0.10969 276646.080000
   3087   3088     1   0.10969 276646.080000
   3087   3089     1   0.10969 276646.080000
   3090   3091     1   0.10969 276646.080000
   3090   3092     1   0.10969 276646.080000
   3093   3094     1   0.10969 276646.080000
   3093   3095     1   0.10969 276646.080000
   3096   3097     1   0.10969 276646.080000
   3096   3098     1   0.10969 276646.080000
   3099   3100     1   0.10969 276646.080000
   3099   3101     1   0.10969 276646.080000
   3104   3105     1   0.10969 276646.080000
   3104   3106     1   0.10969 276646.080000
   3107   3108     1   0.10969 276646.080000
   3107   3109     1   0.10969 276646.080000
   3110   3111     1   0.10969 276646.080000
   3110   3112     1   0.10969 276646.080000
   3113   3114     1   0.10969 276646.080000
   3113   3115     1   0.10969 276646.080000
   3116   3117     1   0.10969 276646.080000
   3116   3118     1   0.10969 276646.080000
   3119   3120     1   0.10969 276646.080000
   3119   3121     1   0.10969 276646.080000
   3122   3123     1   0.10969 276646.080000
   3122   3124     1   0.10969 276646.080000
   3125   3126     1   0.10969 276646.080000
   3125   3127     1   0.10969 276646.080000
   3128   3129     1   0.10969 276646.080000
   3128   3130     1   0.10969 276646.080000
   3133   3134     1   0.10969 276646.080000
   3133   3135     1   0.10969 276646.080000
   3136   3137     1   0.10969 276646.080000
   3136   3138     1   0.10969 276646.080000
   3139   3140     1   0.10969 276646.080000
   3139   3141     1   0.10969 276646.080000
   3142   3143     1   0.10969 276646.080000
   3142   3144     1   0.10969 276646.080000
   3145   3146     1   0.10969 276646.080000
   3145   3147     1   0.10969 276646.080000
   3148   3149     1   0.10969 276646.080000
   3148   3150     1   0.10969 276646.080000
   3151   3152     1   0.10969 276646.080000
   3151   3153     1   0.10969 276646.080000
   3154   3155     1   0.10969 276646.080000
   3154   3156     1   0.10969 276646.080000
   3157   3158     1   0.10969 276646.080000
   3157   3159     1   0.10969 276646.080000
   3162   3163     1   0.10969 276646.080000
   3162   3164     1   0.10969 276646.080000
   3165   3166     1   0.10969 276646.080000
   3165   3167     1   0.10969 276646.080000
   3168   3169     1   0.10969 276646.080000
   3168   3170     1   0.10969 276646.080000
   3171   3172     1   0.10969 276646.080000
   3171   3173     1   0.10969 276646.080000
   3174   3175     1   0.10969 276646.080000
   3174   3176     1   0.10969 276646.080000
   3177   3178     1   0.10969 276646.080000
   3177   3179     1   0.10969 276646.080000
   3180   3181     1   0.10969 276646.080000
   3180   3182     1   0.10969 276646.080000
   3183   3184     1   0.10969 276646.080000
   3183   3185     1   0.10969 276646.080000
   3186   3187     1   0.10969 276646.080000
   3186   3188     1   0.10969 276646.080000
   3191   3192     1   0.10969 276646.080000
   3191   3193     1   0.10969 276646.080000
   3194   3195     1   0.10969 276646.080000
   3194   3196     1   0.10969 276646.080000
   3197   3198     1   0.10969 276646.080000
   3197   3199     1   0.10969 276646.080000
   3200   3201     1   0.10969 276646.080000
   3200   3202     1   0.10969 276646.080000
   3203   3204     1   0.10969 276646.080000
   3203   3205     1   0.10969 276646.080000
   3206   3207     1   0.10969 276646.080000
   3206   3208     1   0.10969 276646.080000
   3209   3210     1   0.10969 276646.080000
   3209   3211     1   0.10969 276646.080000
   3212   3213     1   0.10969 276646.080000
   3212   3214     1   0.10969 276646.080000
   3215   3216     1   0.10969 276646.080000
   3215   3217     1   0.10969 276646.080000
   3220   3221     1   0.10969 276646.080000
   3220   3222     1   0.10969 276646.080000
   3223   3224     1   0.10969 276646.080000
   3223   3225     1   0.10969 276646.080000
   3226   3227     1   0.10969 276646.080000
   3226   3228     1   0.10969 276646.080000
   3229   3230     1   0.10969 276646.080000
   3229   3231     1   0.10969 276646.080000
   3232   3233     1   0.10969 276646.080000
   3232   3234     1   0.10969 276646.080000
   3235   3236     1   0.10969 276646.080000
   3235   3237     1   0.10969 276646.080000
   3238   3239     1   0.10969 276646.080000
   3238   3240     1   0.10969 276646.080000
   3241   3242     1   0.10969 276646.080000
   3241   3243     1   0.10969 276646.080000
   3244   3245     1   0.10969 276646.080000
   3244   3246     1   0.10969 276646.080000
   3249   3250     1   0.10969 276646.080000
   3249   3251     1   0.10969 276646.080000
   3252   3253     1   0.10969 276646.080000
   3252   3254     1   0.10969 276646.080000
   3255   3256     1   0.10969 276646.080000
   3255   3257     1   0.10969 276646.080000
   3258   3259     1   0.10969 276646.080000
   3258   3260     1   0.10969 276646.080000
   3261   3262     1   0.10969 276646.080000
   3261   3263     1   0.10969 276646.080000
   3264   3265     1   0.10969 276646.080000
   3264   3266     1   0.10969 276646.080000
   3267   3268     1   0.10969 276646.080000
   3267   3269     1   0.10969 276646.080000
   3270   3271     1   0.10969 276646.080000
   3270   3272     1   0.10969 276646.080000
   3273   3274     1   0.10969 276646.080000
   3273   3275     1   0.10969 276646.080000
   3278   3279     1   0.10969 276646.080000
   3278   3280     1   0.10969 276646.080000
   3281   3282     1   0.10969 276646.080000
   3281   3283     1   0.10969 276646.080000
   3284   3285     1   0.10969 276646.080000
   3284   3286     1   0.10969 276646.080000
   3287   3288     1   0.10969 276646.080000
   3287   3289     1   0.10969 276646.080000
   3290   3291     1   0.10969 276646.080000
   3290   3292     1   0.10969 276646.080000
   3293   3294     1   0.10969 276646.080000
   3293   3295     1   0.10969 276646.080000
   3296   3297     1   0.10969 276646.080000
   3296   3298     1   0.10969 276646.080000
   3299   3300     1   0.10969 276646.080000
   3299   3301     1   0.10969 276646.080000
   3302   3303     1   0.10969 276646.080000
   3302   3304     1   0.10969 276646.080000
   3307   3308     1   0.10969 276646.080000
   3307   3309     1   0.10969 276646.080000
   3310   3311     1   0.10969 276646.080000
   3310   3312     1   0.10969 276646.080000
   3313   3314     1   0.10969 276646.080000
   3313   3315     1   0.10969 276646.080000
   3316   3317     1   0.10969 276646.080000
   3316   3318     1   0.10969 276646.080000
   3319   3320     1   0.10969 276646.080000
   3319   3321     1   0.10969 276646.080000
   3322   3323     1   0.10969 276646.080000
   3322   3324     1   0.10969 276646.080000
   3325   3326     1   0.10969 276646.080000
   3325   3327     1   0.10969 276646.080000
   3328   3329     1   0.10969 276646.080000
   3328   3330     1   0.10969 276646.080000
   3331   3332     1   0.10969 276646.080000
   3331   3333     1   0.10969 276646.080000
   3336   3337     1   0.10969 276646.080000
   3336   3338     1   0.10969 276646.080000
   3339   3340     1   0.10969 276646.080000
   3339   3341     1   0.10969 276646.080000
   3342   3343     1   0.10969 276646.080000
   3342   3344     1   0.10969 276646.080000
   3345   3346     1   0.10969 276646.080000
   3345   3347     1   0.10969 276646.080000
   3348   3349     1   0.10969 276646.080000
   3348   3350     1   0.10969 276646.080000
   3351   3352     1   0.10969 276646.080000
   3351   3353     1   0.10969 276646.080000
   3354   3355     1   0.10969 276646.080000
   3354   3356     1   0.10969 276646.080000
   3357   3358     1   0.10969 276646.080000
   3357   3359     1   0.10969 276646.080000
   3360   3361     1   0.10969 276646.080000
   3360   3362     1   0.10969 276646.080000
   3365   3366     1   0.10969 276646.080000
   3365   3367     1   0.10969 276646.080000
   3368   3369     1   0.10969 276646.080000
   3368   3370     1   0.10969 276646.080000
   3371   3372     1   0.10969 276646.080000
   3371   3373     1   0.10969 276646.080000
   3374   3375     1   0.10969 276646.080000
   3374   3376     1   0.10969 276646.080000
   3377   3378     1   0.10969 276646.080000
   3377   3379     1   0.10969 276646.080000
   3380   3381     1   0.10969 276646.080000
   3380   3382     1   0.10969 276646.080000
   3383   3384     1   0.10969 276646.080000
   3383   3385     1   0.10969 276646.080000
   3386   3387     1   0.10969 276646.080000
   3386   3388     1   0.10969 276646.080000
   3389   3390     1   0.10969 276646.080000
   3389   3391     1   0.10969 276646.080000
   3394   3395     1   0.10969 276646.080000
   3394   3396     1   0.10969 276646.080000
   3397   3398     1   0.10969 276646.080000
   3397   3399     1   0.10969 276646.080000
   3400   3401     1   0.10969 276646.080000
   3400   3402     1   0.10969 276646.080000
   3403   3404     1   0.10969 276646.080000
   3403   3405     1   0.10969 276646.080000
   3406   3407     1   0.10969 276646.080000
   3406   3408     1   0.10969 276646.080000
   3409   3410     1   0.10969 276646.080000
   3409   3411     1   0.10969 276646.080000
   3412   3413     1   0.10969 276646.080000
   3412   3414     1   0.10969 276646.080000
   3415   3416     1   0.10969 276646.080000
   3415   3417     1   0.10969 276646.080000
   3418   3419     1   0.10969 276646.080000
   3418   3420     1   0.10969 276646.080000
   3423   3424     1   0.10969 276646.080000
   3423   3425     1   0.10969 276646.080000
   3426   3427     1   0.10969 276646.080000
   3426   3428     1   0.10969 276646.080000
   3429   3430     1   0.10969 276646.080000
   3429   3431     1   0.10969 276646.080000
   3432   3433     1   0.10969 276646.080000
   3432   3434     1   0.10969 276646.080000
   3435   3436     1   0.10969 276646.080000
   3435   3437     1   0.10969 276646.080000
   3438   3439     1   0.10969 276646.080000
   3438   3440     1   0.10969 276646.080000
   3441   3442     1   0.10969 276646.080000
   3441   3443     1   0.10969 276646.080000
   3444   3445     1   0.10969 276646.080000
   3444   3446     1   0.10969 276646.080000
   3447   3448     1   0.10969 276646.080000
   3447   3449     1   0.10969 276646.080000
   3452   3453     1   0.10969 276646.080000
   3452   3454     1   0.10969 276646.080000
   3455   3456     1   0.10969 276646.080000
   3455   3457     1   0.10969 276646.080000
   3458   3459     1   0.10969 276646.080000
   3458   3460     1   0.10969 276646.080000
   3461   3462     1   0.10969 276646.080000
   3461   3463     1   0.10969 276646.080000
   3464   3465     1   0.10969 276646.080000
   3464   3466     1   0.10969 276646.080000
   3467   3468     1   0.10969 276646.080000
   3467   3469     1   0.10969 276646.080000
   3470   3471     1   0.10969 276646.080000
   3470   3472     1   0.10969 276646.080000
   3473   3474     1   0.10969 276646.080000
   3473   3475     1   0.10969 276646.080000
   3476   3477     1   0.10969 276646.080000
   3476   3478     1   0.10969 276646.080000
   3481   3482     1   0.10969 276646.080000
   3481   3483     1   0.10969 276646.080000
   3484   3485     1   0.10969 276646.080000
   3484   3486     1   0.10969 276646.080000
   3487   3488     1   0.10969 276646.080000
   3487   3489     1   0.10969 276646.080000
   3490   3491     1   0.10969 276646.080000
   3490   3492     1   0.10969 276646.080000
   3493   3494     1   0.10969 276646.080000
   3493   3495     1   0.10969 276646.080000
   3496   3497     1   0.10969 276646.080000
   3496   3498     1   0.10969 276646.080000
   3499   3500     1   0.10969 276646.080000
   3499   3501     1   0.10969 276646.080000
   3502   3503     1   0.10969 276646.080000
   3502   3504     1   0.10969 276646.080000
   3505   3506     1   0.10969 276646.080000
   3505   3507     1   0.10969 276646.080000
   3510   3511     1   0.10969 276646.080000
   3510   3512     1   0.10969 276646.080000
   3513   3514     1   0.10969 276646.080000
   3513   3515     1   0.10969 276646.080000
   3516   3517     1   0.10969 276646.080000
   3516   3518     1   0.10969 276646.080000
   3519   3520     1   0.10969 276646.080000
   3519   3521     1   0.10969 276646.080000
   3522   3523     1   0.10969 276646.080000
   3522   3524     1   0.10969 276646.080000
   3525   3526     1   0.10969 276646.080000
   3525   3527     1   0.10969 276646.080000
   3528   3529     1   0.10969 276646.080000
   3528   3530     1   0.10969 276646.080000
   3531   3532     1   0.10969 276646.080000
   3531   3533     1   0.10969 276646.080000
   3534   3535     1   0.10969 276646.080000
   3534   3536     1   0.10969 276646.080000
   3539   3540     1   0.10969 276646.080000
   3539   3541     1   0.10969 276646.080000
   3542   3543     1   0.10969 276646.080000
   3542   3544     1   0.10969 276646.080000
   3545   3546     1   0.10969 276646.080000
   3545   3547     1   0.10969 276646.080000
   3548   3549     1   0.10969 276646.080000
   3548   3550     1   0.10969 276646.080000
   3551   3552     1   0.10969 276646.080000
   3551   3553     1   0.10969 276646.080000
   3554   3555     1   0.10969 276646.080000
   3554   3556     1   0.10969 276646.080000
   3557   3558     1   0.10969 276646.080000
   3557   3559     1   0.10969 276646.080000
   3560   3561     1   0.10969 276646.080000
   3560   3562     1   0.10969 276646.080000
   3563   3564     1   0.10969 276646.080000
   3563   3565     1   0.10969 276646.080000
   3568   3569     1   0.10969 276646.080000
   3568   3570     1   0.10969 276646.080000
   3571   3572     1   0.10969 276646.080000
   3571   3573     1   0.10969 276646.080000
   3574   3575     1   0.10969 276646.080000
   3574   3576     1   0.10969 276646.080000
   3577   3578     1   0.10969 276646.080000
   3577   3579     1   0.10969 276646.080000
   3580   3581     1   0.10969 276646.080000
   3580   3582     1   0.10969 276646.080000
   3583   3584     1   0.10969 276646.080000
   3583   3585     1   0.10969 276646.080000
   3586   3587     1   0.10969 276646.080000
   3586   3588     1   0.10969 276646.080000
   3589   3590     1   0.10969 276646.080000
   3589   3591     1   0.10969 276646.080000
   3592   3593     1   0.10969 276646.080000
   3592   3594     1   0.10969 276646.080000
   3597   3598     1   0.10969 276646.080000
   3597   3599     1   0.10969 276646.080000
   3600   3601     1   0.10969 276646.080000
   3600   3602     1   0.10969 276646.080000
   3603   3604     1   0.10969 276646.080000
   3603   3605     1   0.10969 276646.080000
   3606   3607     1   0.10969 276646.080000
   3606   3608     1   0.10969 276646.080000
   3609   3610     1   0.10969 276646.080000
   3609   3611     1   0.10969 276646.080000
   3612   3613     1   0.10969 276646.080000
   3612   3614     1   0.10969 276646.080000
   3615   3616     1   0.10969 276646.080000
   3615   3617     1   0.10969 276646.080000
   3618   3619     1   0.10969 276646.080000
   3618   3620     1   0.10969 276646.080000
   3621   3622     1   0.10969 276646.080000
   3621   3623     1   0.10969 276646.080000
   3626   3627     1   0.10969 276646.080000
   3626   3628     1   0.10969 276646.080000
   3629   3630     1   0.10969 276646.080000
   3629   3631     1   0.10969 276646.080000
   3632   3633     1   0.10969 276646.080000
   3632   3634     1   0.10969 276646.080000
   3635   3636     1   0.10969 276646.080000
   3635   3637     1   0.10969 276646.080000
   3638   3639     1   0.10969 276646.080000
   3638   3640     1   0.10969 276646.080000
   3641   3642     1   0.10969 276646.080000
   3641   3643     1   0.10969 276646.080000
   3644   3645     1   0.10969 276646.080000
   3644   3646     1   0.10969 276646.080000
   3647   3648     1   0.10969 276646.080000
   3647   3649     1   0.10969 276646.080000
   3650   3651     1   0.10969 276646.080000
   3650   3652     1   0.10969 276646.080000
   3654   3655     1   0.10969 276646.080000
   3654   3656     1   0.10969 276646.080000
   3657   3658     1   0.10969 276646.080000
   3657   3659     1   0.10969 276646.080000
   3660   3661     1   0.10969 276646.080000
   3660   3662     1   0.10969 276646.080000
   3664   3665     1   0.10969 276646.080000
   3664   3666     1   0.10969 276646.080000
   3667   3668     1   0.10969 276646.080000
   3667   3669     1   0.10969 276646.080000
   3672   3673     1   0.09730 310787.520000
   3674   3675     1   0.10969 276646.080000
   3674   3676     1   0.10969 276646.080000
   3677   3678     1   0.10969 276646.080000
   3677   3679     1   0.10969 276646.080000
   3682   3683     1   0.09730 310787.520000
   3685   3686     1   0.10969 276646.080000
   3685   3687     1   0.10969 276646.080000
   3688   3689     1   0.10969 276646.080000
   3688   3690     1   0.10969 276646.080000
   3691   3692     1   0.10969 276646.080000
   3691   3693     1   0.10969 276646.080000
   3695   3696     1   0.10969 276646.080000
   3695   3697     1   0.10969 276646.080000
   3698   3699     1   0.10969 276646.080000
   3698   3700     1   0.10969 276646.080000
   3703   3704     1   0.09730 310787.520000
   3705   3706     1   0.10969 276646.080000
   3705   3707     1   0.10969 276646.080000
   3708   3709     1   0.10969 276646.080000
   3708   3710     1   0.10969 276646.080000
   3713   3714     1   0.09730 310787.520000
   3716   3717     1   0.10969 276646.080000
   3716   3718     1   0.10969 276646.080000
   3719   3720     1   0.10969 276646.080000
   3719   3721     1   0.10969 276646.080000
   3722   3723     1   0.10969 276646.080000
   3722   3724     1   0.10969 276646.080000
   3726   3727     1   0.10969 276646.080000
   3726   3728     1   0.10969 276646.080000
   3729   3730     1   0.10969 276646.080000
   3729   3731     1   0.10969 276646.080000
   3734   3735     1   0.09730 310787.520000
   3736   3737     1   0.10969 276646.080000
   3736   3738     1   0.10969 276646.080000
   3739   3740     1   0.10969 276646.080000
   3739   3741     1   0.10969 276646.080000
   3744   3745     1   0.09730 310787.520000
   3747   3748     1   0.10969 276646.080000
   3747   3749     1   0.10969 276646.080000
   3750   3751     1   0.10969 276646.080000
   3750   3752     1   0.10969 276646.080000
   3753   3754     1   0.10969 276646.080000
   3753   3755     1   0.10969 276646.080000
   3757   3758     1   0.10969 276646.080000
   3757   3759     1   0.10969 276646.080000
   3760   3761     1   0.10969 276646.080000
   3760   3762     1   0.10969 276646.080000
   3765   3766     1   0.09730 310787.520000
   3767   3768     1   0.10969 276646.080000
   3767   3769     1   0.10969 276646.080000
   3770   3771     1   0.10969 276646.080000
   3770   3772     1   0.10969 276646.080000
   3775   3776     1   0.09730 310787.520000
   3778   3779     1   0.10969 276646.080000
   3778   3780     1   0.10969 276646.080000
   3781   3782     1   0.10969 276646.080000
   3781   3783     1   0.10969 276646.080000
   3784   3785     1   0.10969 276646.080000
   3784   3786     1   0.10969 276646.080000
   3788   3789     1   0.10969 276646.080000
   3788   3790     1   0.10969 276646.080000
   3791   3792     1   0.10969 276646.080000
   3791   3793     1   0.10969 276646.080000
   3796   3797     1   0.09730 310787.520000
   3798   3799     1   0.10969 276646.080000
   3798   3800     1   0.10969 276646.080000
   3801   3802     1   0.10969 276646.080000
   3801   3803     1   0.10969 276646.080000
   3806   3807     1   0.09730 310787.520000
   3809   3810     1   0.10969 276646.080000
   3809   3811     1   0.10969 276646.080000
   3812   3813     1   0.10969 276646.080000
   3812   3814     1   0.10969 276646.080000
   3815   3816     1   0.10969 276646.080000
   3815   3817     1   0.10969 276646.080000
   3819   3820     1   0.10969 276646.080000
   3819   3821     1   0.10969 276646.080000
   3822   3823     1   0.10969 276646.080000
   3822   3824     1   0.10969 276646.080000
   3827   3828     1   0.09730 310787.520000
   3829   3830     1   0.10969 276646.080000
   3829   3831     1   0.10969 276646.080000
   3832   3833     1   0.10969 276646.080000
   3832   3834     1   0.10969 276646.080000
   3837   3838     1   0.09730 310787.520000
   3840   3841     1   0.10969 276646.080000
   3840   3842     1   0.10969 276646.080000
   3843   3844     1   0.10969 276646.080000
   3843   3845     1   0.10969 276646.080000
   3846   3847     1   0.10969 276646.080000
   3846   3848     1   0.10969 276646.080000
   3850   3851     1   0.10969 276646.080000
   3850   3852     1   0.10969 276646.080000
   3853   3854     1   0.10969 276646.080000
   3853   3855     1   0.10969 276646.080000
   3858   3859     1   0.09730 310787.520000
   3860   3861     1   0.10969 276646.080000
   3860   3862     1   0.10969 276646.080000
   3863   3864     1   0.10969 276646.080000
   3863   3865     1   0.10969 276646.080000
   3868   3869     1   0.09730 310787.520000
   3871   3872     1   0.10969 276646.080000
   3871   3873     1   0.10969 276646.080000
   3874   3875     1   0.10969 276646.080000
   3874   3876     1   0.10969 276646.080000
   3877   3878     1   0.10969 276646.080000
   3877   3879     1   0.10969 276646.080000
   3881   3882     1   0.10969 276646.080000
   3881   3883     1   0.10969 276646.080000
   3884   3885     1   0.10969 276646.080000
   3884   3886     1   0.10969 276646.080000
   3889   3890     1   0.09730 310787.520000
   3891   3892     1   0.10969 276646.080000
   3891   3893     1   0.10969 276646.080000
   3894   3895     1   0.10969 276646.080000
   3894   3896     1   0.10969 276646.080000
   3899   3900     1   0.09730 310787.520000
   3902   3903     1   0.10969 276646.080000
   3902   3904     1   0.10969 276646.080000
   3905   3906     1   0.10969 276646.080000
   3905   3907     1   0.10969 276646.080000
   3908   3909     1   0.10969 276646.080000
   3908   3910     1   0.10969 276646.080000
   3912   3913     1   0.10969 276646.080000
   3912   3914     1   0.10969 276646.080000
   3915   3916     1   0.10969 276646.080000
   3915   3917     1   0.10969 276646.080000
   3920   3921     1   0.09730 310787.520000
   3922   3923     1   0.10969 276646.080000
   3922   3924     1   0.10969 276646.080000
   3925   3926     1   0.10969 276646.080000
   3925   3927     1   0.10969 276646.080000
   3930   3931     1   0.09730 310787.520000
   3933   3934     1   0.10969 276646.080000
   3933   3935     1   0.10969 276646.080000
   3936   3937     1   0.10969 276646.080000
   3936   3938     1   0.10969 276646.080000
   3939   3940     1   0.10969 276646.080000
   3939   3941     1   0.10969 276646.080000
   3943   3944     1   0.10969 276646.080000
   3943   3945     1   0.10969 276646.080000
   3946   3947     1   0.10969 276646.080000
   3946   3948     1   0.10969 276646.080000
   3951   3952     1   0.09730 310787.520000
   3953   3954     1   0.10969 276646.080000
   3953   3955     1   0.10969 276646.080000
   3956   3957     1   0.10969 276646.080000
   3956   3958     1   0.10969 276646.080000
   3961   3962     1   0.09730 310787.520000
   3964   3965     1   0.10969 276646.080000
   3964   3966     1   0.10969 276646.080000
   3967   3968     1   0.10969 276646.080000
   3967   3969     1   0.10969 276646.080000
   3970   3971     1   0.10969 276646.080000
   3970   3972     1   0.10969 276646.080000
   3974   3975     1   0.10969 276646.080000
   3974   3976     1   0.10969 276646.080000
   3977   3978     1   0.10969 276646.080000
   3977   3979     1   0.10969 276646.080000
   3982   3983     1   0.09730 310787.520000
   3984   3985     1   0.10969 276646.080000
   3984   3986     1   0.10969 276646.080000
   3987   3988     1   0.10969 276646.080000
   3987   3989     1   0.10969 276646.080000
   3992   3993     1   0.09730 310787.520000
   3995   3996     1   0.10969 276646.080000
   3995   3997     1   0.10969 276646.080000
   3998   3999     1   0.10969 276646.080000
   3998   4000     1   0.10969 276646.080000
   4001   4002     1   0.10969 276646.080000
   4001   4003     1   0.10969 276646.080000
   4005   4006     1   0.10969 276646.080000
   4005   4007     1   0.10969 276646.080000
   4008   4009     1   0.10969 276646.080000
   4008   4010     1   0.10969 276646.080000
   4013   4014     1   0.09730 310787.520000
   4015   4016     1   0.10969 276646.080000
   4015   4017     1   0.10969 276646.080000
   4018   4019     1   0.10969 276646.080000
   4018   4020     1   0.10969 276646.080000
   4023   4024     1   0.09730 310787.520000
   4026   4027     1   0.10969 276646.080000
   4026   4028     1   0.10969 276646.080000
   4029   4030     1   0.10969 276646.080000
   4029   4031     1   0.10969 276646.080000
   4032   4033     1   0.10969 276646.080000
   4032   4034     1   0.10969 276646.080000
   4036   4037     1   0.10969 276646.080000
   4036   4038     1   0.10969 276646.080000
   4039   4040     1   0.10969 276646.080000
   4039   4041     1   0.10969 276646.080000
   4044   4045     1   0.09730 310787.520000
   4046   4047     1   0.10969 276646.080000
   4046   4048     1   0.10969 276646.080000
   4049   4050     1   0.10969 276646.080000
   4049   4051     1   0.10969 276646.080000
   4054   4055     1   0.09730 310787.520000
   4057   4058     1   0.10969 276646.080000
   4057   4059     1   0.10969 276646.080000
   4060   4061     1   0.10969 276646.080000
   4060   4062     1   0.10969 276646.080000
   4063   4064     1   0.10969 276646.080000
   4063   4065     1   0.10969 276646.080000
   4067   4068     1   0.10969 276646.080000
   4067   4069     1   0.10969 276646.080000
   4070   4071     1   0.10969 276646.080000
   4070   4072     1   0.10969 276646.080000
   4075   4076     1   0.09730 310787.520000
   4077   4078     1   0.10969 276646.080000
   4077   4079     1   0.10969 276646.080000
   4080   4081     1   0.10969 276646.080000
   4080   4082     1   0.10969 276646.080000
   4085   4086     1   0.09730 310787.520000
   4088   4089     1   0.10969 276646.080000
   4088   4090     1   0.10969 276646.080000
   4091   4092     1   0.10969 276646.080000
   4091   4093     1   0.10969 276646.080000
   4094   4095     1   0.10969 276646.080000
   4094   4096     1   0.10969 276646.080000
   4098   4099     1   0.10969 276646.080000
   4098   4100     1   0.10969 276646.080000
   4101   4102     1   0.10969 276646.080000
   4101   4103     1   0.10969 276646.080000
   4106   4107     1   0.09730 310787.520000
   4108   4109     1   0.10969 276646.080000
   4108   4110     1   0.10969 276646.080000
   4111   4112     1   0.10969 276646.080000
   4111   4113     1   0.10969 276646.080000
   4116   4117     1   0.09730 310787.520000
   4119   4120     1   0.10969 276646.080000
   4119   4121     1   0.10969 276646.080000
   4122   4123     1   0.10969 276646.080000
   4122   4124     1   0.10969 276646.080000
   4125   4126     1   0.10969 276646.080000
   4125   4127     1   0.10969 276646.080000
   4129   4130     1   0.10969 276646.080000
   4129   4131     1   0.10969 276646.080000
   4132   4133     1   0.10969 276646.080000
   4132   4134     1   0.10969 276646.080000
   4137   4138     1   0.09730 310787.520000
   4139   4140     1   0.10969 276646.080000
   4139   4141     1   0.10969 276646.080000
   4142   4143     1   0.10969 276646.080000
   4142   4144     1   0.10969 276646.080000
   4147   4148     1   0.09730 310787.520000
   4150   4151     1   0.10969 276646.080000
   4150   4152     1   0.10969 276646.080000
   4153   4154     1   0.10969 276646.080000
   4153   4155     1   0.10969 276646.080000
   4156   4157     1   0.10969 276646.080000
   4156   4158     1   0.10969 276646.080000
   4160   4161     1   0.10969 276646.080000
   4160   4162     1   0.10969 276646.080000
   4163   4164     1   0.10969 276646.080000
   4163   4165     1   0.10969 276646.080000
   4168   4169     1   0.09730 310787.520000
   4170   4171     1   0.10969 276646.080000
   4170   4172     1   0.10969 276646.080000
   4173   4174     1   0.10969 276646.080000
   4173   4175     1   0.10969 276646.080000
   4178   4179     1   0.09730 310787.520000
   4181   4182     1   0.10969 276646.080000
   4181   4183     1   0.10969 276646.080000
   4184   4185     1   0.10969 276646.080000
   4184   4186     1   0.10969 276646.080000
   4187   4188     1   0.10969 276646.080000
   4187   4189     1   0.10969 276646.080000
   4191   4192     1   0.10969 276646.080000
   4191   4193     1   0.10969 276646.080000
   4194   4195     1   0.10969 276646.080000
   4194   4196     1   0.10969 276646.080000
   4199   4200     1   0.09730 310787.520000
   4201   4202     1   0.10969 276646.080000
   4201   4203     1   0.10969 276646.080000
   4204   4205     1   0.10969 276646.080000
   4204   4206     1   0.10969 276646.080000
   4209   4210     1   0.09730 310787.520000
   4212   4213     1   0.10969 276646.080000
   4212   4214     1   0.10969 276646.080000
   4215   4216     1   0.10969 276646.080000
   4215   4217     1   0.10969 276646.080000
   4218   4219     1   0.10969 276646.080000
   4218   4220     1   0.10969 276646.080000
   4222   4223     1   0.10969 276646.080000
   4222   4224     1   0.10969 276646.080000
   4225   4226     1   0.10969 276646.080000
   4225   4227     1   0.10969 276646.080000
   4230   4231     1   0.09730 310787.520000
   4232   4233     1   0.10969 276646.080000
   4232   4234     1   0.10969 276646.080000
   4235   4236     1   0.10969 276646.080000
   4235   4237     1   0.10969 276646.080000
   4240   4241     1   0.09730 310787.520000
   4243   4244     1   0.10969 276646.080000
   4243   4245     1   0.10969 276646.080000
   4246   4247     1   0.10969 276646.080000
   4246   4248     1   0.10969 276646.080000
   4249   4250     1   0.10969 276646.080000
   4249   4251     1   0.10969 276646.080000
   4253   4254     1   0.10969 276646.080000
   4253   4255     1   0.10969 276646.080000
   4256   4257     1   0.10969 276646.080000
   4256   4258     1   0.10969 276646.080000
   4261   4262     1   0.09730 310787.520000
   4263   4264     1   0.10969 276646.080000
   4263   4265     1   0.10969 276646.080000
   4266   4267     1   0.10969 276646.080000
   4266   4268     1   0.10969 276646.080000
   4271   4272     1   0.09730 310787.520000
   4274   4275     1   0.10969 276646.080000
   4274   4276     1   0.10969 276646.080000
   4277   4278     1   0.10969 276646.080000
   4277   4279     1   0.10969 276646.080000
   4280   4281     1   0.10969 276646.080000
   4280   4282     1   0.10969 276646.080000
   4284   4285     1   0.10969 276646.080000
   4284   4286     1   0.10969 276646.080000
   4287   4288     1   0.10969 276646.080000
   4287   4289     1   0.10969 276646.080000
   4292   4293     1   0.09730 310787.520000
   4294   4295     1   0.10969 276646.080000
   4294   4296     1   0.10969 276646.080000
   4297   4298     1   0.10969 276646.080000
   4297   4299     1   0.10969 276646.080000
   4302   4303     1   0.09730 310787.520000
   4305   4306     1   0.10969 276646.080000
   4305   4307     1   0.10969 276646.080000
   4308   4309     1   0.10969 276646.080000
   4308   4310     1   0.10969 276646.080000
   4311   4312     1   0.10969 276646.080000
   4311   4313     1   0.10969 276646.080000
   4315   4316     1   0.10969 276646.080000
   4315   4317     1   0.10969 276646.080000
   4318   4319     1   0.10969 276646.080000
   4318   4320     1   0.10969 276646.080000
   4323   4324     1   0.09730 310787.520000
   4325   4326     1   0.10969 276646.080000
   4325   4327     1   0.10969 276646.080000
   4328   4329     1   0.10969 276646.080000
   4328   4330     1   0.10969 276646.080000
   4333   4334     1   0.09730 310787.520000
   4336   4337     1   0.10969 276646.080000
   4336   4338     1   0.10969 276646.080000
   4339   4340     1   0.10969 276646.080000
   4339   4341     1   0.10969 276646.080000
   4342   4343     1   0.10969 276646.080000
   4342   4344     1   0.10969 276646.080000
   4346   4347     1   0.10969 276646.080000
   4346   4348     1   0.10969 276646.080000
   4349   4350     1   0.10969 276646.080000
   4349   4351     1   0.10969 276646.080000
   4354   4355     1   0.09730 310787.520000
   4356   4357     1   0.10969 276646.080000
   4356   4358     1   0.10969 276646.080000
   4359   4360     1   0.10969 276646.080000
   4359   4361     1   0.10969 276646.080000
   4364   4365     1   0.09730 310787.520000
   4367   4368     1   0.10969 276646.080000
   4367   4369     1   0.10969 276646.080000
   4370   4371     1   0.10969 276646.080000
   4370   4372     1   0.10969 276646.080000
   4373   4374     1   0.10969 276646.080000
   4373   4375     1   0.10969 276646.080000
   4377   4378     1   0.10969 276646.080000
   4377   4379     1   0.10969 276646.080000
   4380   4381     1   0.10969 276646.080000
   4380   4382     1   0.10969 276646.080000
   4385   4386     1   0.09730 310787.520000
   4387   4388     1   0.10969 276646.080000
   4387   4389     1   0.10969 276646.080000
   4390   4391     1   0.10969 276646.080000
   4390   4392     1   0.10969 276646.080000
   4395   4396     1   0.09730 310787.520000
   4398   4399     1   0.10969 276646.080000
   4398   4400     1   0.10969 276646.080000
   4401   4402     1   0.10969 276646.080000
   4401   4403     1   0.10969 276646.080000
   4404   4405     1   0.10969 276646.080000
   4404   4406     1   0.10969 276646.080000
   4408   4409     1   0.10969 276646.080000
   4408   4410     1   0.10969 276646.080000
   4411   4412     1   0.10969 276646.080000
   4411   4413     1   0.10969 276646.080000
   4416   4417     1   0.09730 310787.520000
   4418   4419     1   0.10969 276646.080000
   4418   4420     1   0.10969 276646.080000
   4421   4422     1   0.10969 276646.080000
   4421   4423     1   0.10969 276646.080000
   4426   4427     1   0.09730 310787.520000
   4429   4430     1   0.10969 276646.080000
   4429   4431     1   0.10969 276646.080000
   4432   4433     1   0.10969 276646.080000
   4432   4434     1   0.10969 276646.080000
   4435   4436     1   0.10969 276646.080000
   4435   4437     1   0.10969 276646.080000
   4439   4440     1   0.10969 276646.080000
   4439   4441     1   0.10969 276646.080000
   4442   4443     1   0.10969 276646.080000
   4442   4444     1   0.10969 276646.080000
   4447   4448     1   0.09730 310787.520000
   4449   4450     1   0.10969 276646.080000
   4449   4451     1   0.10969 276646.080000
   4452   4453     1   0.10969 276646.080000
   4452   4454     1   0.10969 276646.080000
   4457   4458     1   0.09730 310787.520000
   4460   4461     1   0.10969 276646.080000
   4460   4462     1   0.10969 276646.080000
   4463   4464     1   0.10969 276646.080000
   4463   4465     1   0.10969 276646.080000
   4466   4467     1   0.10969 276646.080000
   4466   4468     1   0.10969 276646.080000
   4470   4471     1   0.10969 276646.080000
   4470   4472     1   0.10969 276646.080000
   4473   4474     1   0.10969 276646.080000
   4473   4475     1   0.10969 276646.080000
   4478   4479     1   0.09730 310787.520000
   4480   4481     1   0.10969 276646.080000
   4480   4482     1   0.10969 276646.080000
   4483   4484     1   0.10969 276646.080000
   4483   4485     1   0.10969 276646.080000
   4488   4489     1   0.09730 310787.520000
   4491   4492     1   0.10969 276646.080000
   4491   4493     1   0.10969 276646.080000
   4494   4495     1   0.10969 276646.080000
   4494   4496     1   0.10969 276646.080000
   4497   4498     1   0.10969 276646.080000
   4497   4499     1   0.10969 276646.080000
   4501   4502     1   0.10969 276646.080000
   4501   4503     1   0.10969 276646.080000
   4504   4505     1   0.10969 276646.080000
   4504   4506     1   0.10969 276646.080000
   4509   4510     1   0.09730 310787.520000
   4511   4512     1   0.10969 276646.080000
   4511   4513     1   0.10969 276646.080000
   4514   4515     1   0.10969 276646.080000
   4514   4516     1   0.10969 276646.080000
   4519   4520     1   0.09730 310787.520000
   4522   4523     1   0.10969 276646.080000
   4522   4524     1   0.10969 276646.080000
   4525   4526     1   0.10969 276646.080000
   4525   4527     1   0.10969 276646.080000
   4528   4529     1   0.10969 276646.080000
   4528   4530     1   0.10969 276646.080000
   4532   4533     1   0.10969 276646.080000
   4532   4534     1   0.10969 276646.080000
   4535   4536     1   0.10969 276646.080000
   4535   4537     1   0.10969 276646.080000
   4540   4541     1   0.09730 310787.520000
   4542   4543     1   0.10969 276646.080000
   4542   4544     1   0.10969 276646.080000
   4545   4546     1   0.10969 276646.080000
   4545   4547     1   0.10969 276646.080000
   4550   4551     1   0.09730 310787.520000
   4553   4554     1   0.10969 276646.080000
   4553   4555     1   0.10969 276646.080000
   4556   4557     1   0.10969 276646.080000
   4556   4558     1   0.10969 276646.080000
   4559   4560     1   0.10969 276646.080000
   4559   4561     1   0.10969 276646.080000
   4563   4564     1   0.10969 276646.080000
   4563   4565     1   0.10969 276646.080000
   4566   4567     1   0.10969 276646.080000
   4566   4568     1   0.10969 276646.080000
   4571   4572     1   0.09730 310787.520000
   4573   4574     1   0.10969 276646.080000
   4573   4575     1   0.10969 276646.080000
   4576   4577     1   0.10969 276646.080000
   4576   4578     1   0.10969 276646.080000
   4581   4582     1   0.09730 310787.520000
   4584   4585     1   0.10969 276646.080000
   4584   4586     1   0.10969 276646.080000
   4587   4588     1   0.10969 276646.080000
   4587   4589     1   0.10969 276646.080000
   4590   4591     1   0.10969 276646.080000
   4590   4592     1   0.10969 276646.080000
   4594   4595     1   0.10969 276646.080000
   4594   4596     1   0.10969 276646.080000
   4597   4598     1   0.10969 276646.080000
   4597   4599     1   0.10969 276646.080000
   4602   4603     1   0.09730 310787.520000
   4604   4605     1   0.10969 276646.080000
   4604   4606     1   0.10969 276646.080000
   4607   4608     1   0.10969 276646.080000
   4607   4609     1   0.10969 276646.080000
   4612   4613     1   0.09730 310787.520000
   4615   4616     1   0.10969 276646.080000
   4615   4617     1   0.10969 276646.080000
   4618   4619     1   0.10969 276646.080000
   4618   4620     1   0.10969 276646.080000
   4621   4622     1   0.10969 276646.080000
   4621   4623     1   0.10969 276646.080000
   4625   4626     1   0.10969 276646.080000
   4625   4627     1   0.10969 276646.080000
   4628   4629     1   0.10969 276646.080000
   4628   4630     1   0.10969 276646.080000
   4633   4634     1   0.09730 310787.520000
   4635   4636     1   0.10969 276646.080000
   4635   4637     1   0.10969 276646.080000
   4638   4639     1   0.10969 276646.080000
   4638   4640     1   0.10969 276646.080000
   4643   4644     1   0.09730 310787.520000
   4646   4647     1   0.10969 276646.080000
   4646   4648     1   0.10969 276646.080000
   4649   4650     1   0.10969 276646.080000
   4649   4651     1   0.10969 276646.080000
   4652   4653     1   0.10969 276646.080000
   4652   4654     1   0.10969 276646.080000
   4656   4657     1   0.10969 276646.080000
   4656   4658     1   0.10969 276646.080000
   4659   4660     1   0.10969 276646.080000
   4659   4661     1   0.10969 276646.080000
   4664   4665     1   0.09730 310787.520000
   4666   4667     1   0.10969 276646.080000
   4666   4668     1   0.10969 276646.080000
   4669   4670     1   0.10969 276646.080000
   4669   4671     1   0.10969 276646.080000
   4674   4675     1   0.09730 310787.520000
   4677   4678     1   0.10969 276646.080000
   4677   4679     1   0.10969 276646.080000
   4680   4681     1   0.10969 276646.080000
   4680   4682     1   0.10969 276646.080000
   4683   4684     1   0.10969 276646.080000
   4683   4685     1   0.10969 276646.080000
   4687   4688     1   0.10969 276646.080000
   4687   4689     1   0.10969 276646.080000
   4690   4691     1   0.10969 276646.080000
   4690   4692     1   0.10969 276646.080000
   4695   4696     1   0.09730 310787.520000
   4697   4698     1   0.10969 276646.080000
   4697   4699     1   0.10969 276646.080000
   4700   4701     1   0.10969 276646.080000
   4700   4702     1   0.10969 276646.080000
   4705   4706     1   0.09730 310787.520000
   4708   4709     1   0.10969 276646.080000
   4708   4710     1   0.10969 276646.080000
   4711   4712     1   0.10969 276646.080000
   4711   4713     1   0.10969 276646.080000
   4714   4715     1   0.10969 276646.080000
   4714   4716     1   0.10969 276646.080000
   4718   4719     1   0.10969 276646.080000
   4718   4720     1   0.10969 276646.080000
   4721   4722     1   0.10969 276646.080000
   4721   4723     1   0.10969 276646.080000
   4726   4727     1   0.09730 310787.520000
   4728   4729     1   0.10969 276646.080000
   4728   4730     1   0.10969 276646.080000
   4731   4732     1   0.10969 276646.080000
   4731   4733     1   0.10969 276646.080000
   4736   4737     1   0.09730 310787.520000
   4739   4740     1   0.10969 276646.080000
   4739   4741     1   0.10969 276646.080000
   4742   4743     1   0.10969 276646.080000
   4742   4744     1   0.10969 276646.080000
   4745   4746     1   0.10969 276646.080000
   4745   4747     1   0.10969 276646.080000
   4749   4750     1   0.10969 276646.080000
   4749   4751     1   0.10969 276646.080000
   4752   4753     1   0.10969 276646.080000
   4752   4754     1   0.10969 276646.080000
   4757   4758     1   0.09730 310787.520000
   4759   4760     1   0.10969 276646.080000
   4759   4761     1   0.10969 276646.080000
   4762   4763     1   0.10969 276646.080000
   4762   4764     1   0.10969 276646.080000
   4767   4768     1   0.09730 310787.520000
   4770   4771     1   0.10969 276646.080000
   4770   4772     1   0.10969 276646.080000
   4773   4774     1   0.10969 276646.080000
   4773   4775     1   0.10969 276646.080000
   4776   4777     1   0.10969 276646.080000
   4776   4778     1   0.10969 276646.080000
   4780   4781     1   0.10969 276646.080000
   4780   4782     1   0.10969 276646.080000
   4783   4784     1   0.10969 276646.080000
   4783   4785     1   0.10969 276646.080000
   4788   4789     1   0.09730 310787.520000
   4790   4791     1   0.10969 276646.080000
   4790   4792     1   0.10969 276646.080000
   4793   4794     1   0.10969 276646.080000
   4793   4795     1   0.10969 276646.080000
   4798   4799     1   0.09730 310787.520000
   4801   4802     1   0.10969 276646.080000
   4801   4803     1   0.10969 276646.080000
   4804   4805     1   0.10969 276646.080000
   4804   4806     1   0.10969 276646.080000
   4807   4808     1   0.10969 276646.080000
   4807   4809     1   0.10969 276646.080000
   4811   4812     1   0.10969 276646.080000
   4811   4813     1   0.10969 276646.080000
   4814   4815     1   0.10969 276646.080000
   4814   4816     1   0.10969 276646.080000
   4819   4820     1   0.09730 310787.520000
   4821   4822     1   0.10969 276646.080000
   4821   4823     1   0.10969 276646.080000
   4824   4825     1   0.10969 276646.080000
   4824   4826     1   0.10969 276646.080000
   4829   4830     1   0.09730 310787.520000
   4832   4833     1   0.10969 276646.080000
   4832   4834     1   0.10969 276646.080000
   4835   4836     1   0.10969 276646.080000
   4835   4837     1   0.10969 276646.080000
   4838   4839     1   0.10969 276646.080000
   4838   4840     1   0.10969 276646.080000
   4842   4843     1   0.10969 276646.080000
   4842   4844     1   0.10969 276646.080000
   4845   4846     1   0.10969 276646.080000
   4845   4847     1   0.10969 276646.080000
   4850   4851     1   0.09730 310787.520000
   4852   4853     1   0.10969 276646.080000
   4852   4854     1   0.10969 276646.080000
   4855   4856     1   0.10969 276646.080000
   4855   4857     1   0.10969 276646.080000
   4860   4861     1   0.09730 310787.520000
   4863   4864     1   0.10969 276646.080000
   4863   4865     1   0.10969 276646.080000
   4866   4867     1   0.10969 276646.080000
   4866   4868     1   0.10969 276646.080000
   4869   4870     1   0.10969 276646.080000
   4869   4871     1   0.10969 276646.080000
   4873   4874     1   0.10969 276646.080000
   4873   4875     1   0.10969 276646.080000
   4876   4877     1   0.10969 276646.080000
   4876   4878     1   0.10969 276646.080000
   4881   4882     1   0.09730 310787.520000
   4883   4884     1   0.10969 276646.080000
   4883   4885     1   0.10969 276646.080000
   4886   4887     1   0.10969 276646.080000
   4886   4888     1   0.10969 276646.080000
   4891   4892     1   0.09730 310787.520000
   4894   4895     1   0.10969 276646.080000
   4894   4896     1   0.10969 276646.080000
   4897   4898     1   0.10969 276646.080000
   4897   4899     1   0.10969 276646.080000
   4900   4901     1   0.10969 276646.080000
   4900   4902     1   0.10969 276646.080000
   4904   4905     1   0.10969 276646.080000
   4904   4906     1   0.10969 276646.080000
   4907   4908     1   0.10969 276646.080000
   4907   4909     1   0.10969 276646.080000
   4912   4913     1   0.09730 310787.520000
   4914   4915     1   0.10969 276646.080000
   4914   4916     1   0.10969 276646.080000
   4917   4918     1   0.10969 276646.080000
   4917   4919     1   0.10969 276646.080000
   4922   4923     1   0.09730 310787.520000
   4925   4926     1   0.10969 276646.080000
   4925   4927     1   0.10969 276646.080000
   4928   4929     1   0.10969 276646.080000
   4928   4930     1   0.10969 276646.080000
   4931   4932     1   0.10969 276646.080000
   4931   4933     1   0.10969 276646.080000
   4935   4936     1   0.10969 276646.080000
   4935   4937     1   0.10969 276646.080000
   4938   4939     1   0.10969 276646.080000
   4938   4940     1   0.10969 276646.080000
   4943   4944     1   0.09730 310787.520000
   4945   4946     1   0.10969 276646.080000
   4945   4947     1   0.10969 276646.080000
   4948   4949     1   0.10969 276646.080000
   4948   4950     1   0.10969 276646.080000
   4953   4954     1   0.09730 310787.520000
   4956   4957     1   0.10969 276646.080000
   4956   4958     1   0.10969 276646.080000
   4959   4960     1   0.10969 276646.080000
   4959   4961     1   0.10969 276646.080000
   4962   4963     1   0.10969 276646.080000
   4962   4964     1   0.10969 276646.080000
   4966   4967     1   0.10969 276646.080000
   4966   4968     1   0.10969 276646.080000
   4969   4970     1   0.10969 276646.080000
   4969   4971     1   0.10969 276646.080000
   4974   4975     1   0.09730 310787.520000
   4976   4977     1   0.10969 276646.080000
   4976   4978     1   0.10969 276646.080000
   4979   4980     1   0.10969 276646.080000
   4979   4981     1   0.10969 276646.080000
   4984   4985     1   0.09730 310787.520000
   4987   4988     1   0.10969 276646.080000
   4987   4989     1   0.10969 276646.080000
   4990   4991     1   0.10969 276646.080000
   4990   4992     1   0.10969 276646.080000
   4993   4994     1   0.10969 276646.080000
   4993   4995     1   0.10969 276646.080000
   4997   4998     1   0.10969 276646.080000
   4997   4999     1   0.10969 276646.080000
   5000   5001     1   0.10969 276646.080000
   5000   5002     1   0.10969 276646.080000
   5005   5006     1   0.09730 310787.520000
   5007   5008     1   0.10969 276646.080000
   5007   5009     1   0.10969 276646.080000
   5010   5011     1   0.10969 276646.080000
   5010   5012     1   0.10969 276646.080000
   5015   5016     1   0.09730 310787.520000
   5018   5019     1   0.10969 276646.080000
   5018   5020     1   0.10969 276646.080000
   5021   5022     1   0.10969 276646.080000
   5021   5023     1   0.10969 276646.080000
   5024   5025     1   0.10969 276646.080000
   5024   5026     1   0.10969 276646.080000
   5028   5029     1   0.10969 276646.080000
   5028   5030     1   0.10969 276646.080000
   5031   5032     1   0.10969 276646.080000
   5031   5033     1   0.10969 276646.080000
   5036   5037     1   0.09730 310787.520000
   5038   5039     1   0.10969 276646.080000
   5038   5040     1   0.10969 276646.080000
   5041   5042     1   0.10969 276646.080000
   5041   5043     1   0.10969 276646.080000
   5046   5047     1   0.09730 310787.520000
   5049   5050     1   0.10969 276646.080000
   5049   5051     1   0.10969 276646.080000
   5052   5053     1   0.10969 276646.080000
   5052   5054     1   0.10969 276646.080000
   5055   5056     1   0.10969 276646.080000
   5055   5057     1   0.10969 276646.080000
   5059   5060     1   0.10969 276646.080000
   5059   5061     1   0.10969 276646.080000
   5062   5063     1   0.10969 276646.080000
   5062   5064     1   0.10969 276646.080000
   5067   5068     1   0.09730 310787.520000
   5069   5070     1   0.10969 276646.080000
   5069   5071     1   0.10969 276646.080000
   5072   5073     1   0.10969 276646.080000
   5072   5074     1   0.10969 276646.080000
   5077   5078     1   0.09730 310787.520000
   5080   5081     1   0.10969 276646.080000
   5080   5082     1   0.10969 276646.080000
   5083   5084     1   0.10969 276646.080000
   5083   5085     1   0.10969 276646.080000
   5086   5087     1   0.10969 276646.080000
   5086   5088     1   0.10969 276646.080000
   5090   5091     1   0.10969 276646.080000
   5090   5092     1   0.10969 276646.080000
   5093   5094     1   0.10969 276646.080000
   5093   5095     1   0.10969 276646.080000
   5098   5099     1   0.09730 310787.520000
   5100   5101     1   0.10969 276646.080000
   5100   5102     1   0.10969 276646.080000
   5103   5104     1   0.10969 276646.080000
   5103   5105     1   0.10969 276646.080000
   5108   5109     1   0.09730 310787.520000
   5111   5112     1   0.10969 276646.080000
   5111   5113     1   0.10969 276646.080000
   5114   5115     1   0.10969 276646.080000
   5114   5116     1   0.10969 276646.080000
   5117   5118     1   0.10969 276646.080000
   5117   5119     1   0.10969 276646.080000
   5121   5122     1   0.10969 276646.080000
   5121   5123     1   0.10969 276646.080000
   5124   5125     1   0.10969 276646.080000
   5124   5126     1   0.10969 276646.080000
   5129   5130     1   0.09730 310787.520000
   5131   5132     1   0.10969 276646.080000
   5131   5133     1   0.10969 276646.080000
   5134   5135     1   0.10969 276646.080000
   5134   5136     1   0.10969 276646.080000
   5139   5140     1   0.09730 310787.520000
   5142   5143     1   0.10969 276646.080000
   5142   5144     1   0.10969 276646.080000
   5145   5146     1   0.10969 276646.080000
   5145   5147     1   0.10969 276646.080000
   5148   5149     1   0.10969 276646.080000
   5148   5150     1   0.10969 276646.080000
   5152   5153     1   0.10969 276646.080000
   5152   5154     1   0.10969 276646.080000
   5155   5156     1   0.10969 276646.080000
   5155   5157     1   0.10969 276646.080000
   5160   5161     1   0.09730 310787.520000
   5162   5163     1   0.10969 276646.080000
   5162   5164     1   0.10969 276646.080000
   5165   5166     1   0.10969 276646.080000
   5165   5167     1   0.10969 276646.080000
   5170   5171     1   0.09730 310787.520000
   5173   5174     1   0.10969 276646.080000
   5173   5175     1   0.10969 276646.080000
   5176   5177     1   0.10969 276646.080000
   5176   5178     1   0.10969 276646.080000
   5179   5180     1   0.10969 276646.080000
   5179   5181     1   0.10969 276646.080000
   5183   5184     1   0.10969 276646.080000
   5183   5185     1   0.10969 276646.080000
   5186   5187     1   0.10969 276646.080000
   5186   5188     1   0.10969 276646.080000
   5191   5192     1   0.09730 310787.520000
   5193   5194     1   0.10969 276646.080000
   5193   5195     1   0.10969 276646.080000
   5196   5197     1   0.10969 276646.080000
   5196   5198     1   0.10969 276646.080000
   5201   5202     1   0.09730 310787.520000
   5204   5205     1   0.10969 276646.080000
   5204   5206     1   0.10969 276646.080000
   5207   5208     1   0.10969 276646.080000
   5207   5209     1   0.10969 276646.080000
   5210   5211     1   0.10969 276646.080000
   5210   5212     1   0.10969 276646.080000
   5214   5215     1   0.10969 276646.080000
   5214   5216     1   0.10969 276646.080000
   5217   5218     1   0.10969 276646.080000
   5217   5219     1   0.10969 276646.080000
   5222   5223     1   0.09730 310787.520000
   5224   5225     1   0.10969 276646.080000
   5224   5226     1   0.10969 276646.080000
   5227   5228     1   0.10969 276646.080000
   5227   5229     1   0.10969 276646.080000
   5232   5233     1   0.09730 310787.520000
   5235   5236     1   0.10969 276646.080000
   5235   5237     1   0.10969 276646.080000
   5238   5239     1   0.10969 276646.080000
   5238   5240     1   0.10969 276646.080000
   5241   5242     1   0.10969 276646.080000
   5241   5243     1   0.10969 276646.080000
   5245   5246     1   0.10969 276646.080000
   5245   5247     1   0.10969 276646.080000
   5248   5249     1   0.10969 276646.080000
   5248   5250     1   0.10969 276646.080000
   5253   5254     1   0.09730 310787.520000
   5255   5256     1   0.10969 276646.080000
   5255   5257     1   0.10969 276646.080000
   5258   5259     1   0.10969 276646.080000
   5258   5260     1   0.10969 276646.080000
   5263   5264     1   0.09730 310787.520000
   5266   5267     1   0.10969 276646.080000
   5266   5268     1   0.10969 276646.080000
   5269   5270     1   0.10969 276646.080000
   5269   5271     1   0.10969 276646.080000
   5272   5273     1   0.10969 276646.080000
   5272   5274     1   0.10969 276646.080000
   5276   5277     1   0.10969 276646.080000
   5276   5278     1   0.10969 276646.080000
   5279   5280     1   0.10969 276646.080000
   5279   5281     1   0.10969 276646.080000
   5284   5285     1   0.09730 310787.520000
   5286   5287     1   0.10969 276646.080000
   5286   5288     1   0.10969 276646.080000
   5289   5290     1   0.10969 276646.080000
   5289   5291     1   0.10969 276646.080000
   5294   5295     1   0.09730 310787.520000
   5297   5298     1   0.10969 276646.080000
   5297   5299     1   0.10969 276646.080000
   5300   5301     1   0.10969 276646.080000
   5300   5302     1   0.10969 276646.080000
   5303   5304     1   0.10969 276646.080000
   5303   5305     1   0.10969 276646.080000
   5307   5308     1   0.10969 276646.080000
   5307   5309     1   0.10969 276646.080000
   5310   5311     1   0.10969 276646.080000
   5310   5312     1   0.10969 276646.080000
   5315   5316     1   0.09730 310787.520000
   5317   5318     1   0.10969 276646.080000
   5317   5319     1   0.10969 276646.080000
   5320   5321     1   0.10969 276646.080000
   5320   5322     1   0.10969 276646.080000
   5325   5326     1   0.09730 310787.520000
   5328   5329     1   0.10969 276646.080000
   5328   5330     1   0.10969 276646.080000
   5331   5332     1   0.10969 276646.080000
   5331   5333     1   0.10969 276646.080000
   5334   5335     1   0.10969 276646.080000
   5334   5336     1   0.10969 276646.080000
   5338   5339     1   0.10969 276646.080000
   5338   5340     1   0.10969 276646.080000
   5341   5342     1   0.10969 276646.080000
   5341   5343     1   0.10969 276646.080000
   5346   5347     1   0.09730 310787.520000
   5348   5349     1   0.10969 276646.080000
   5348   5350     1   0.10969 276646.080000
   5351   5352     1   0.10969 276646.080000
   5351   5353     1   0.10969 276646.080000
   5356   5357     1   0.09730 310787.520000
   5359   5360     1   0.10969 276646.080000
   5359   5361     1   0.10969 276646.080000
   5362   5363     1   0.10969 276646.080000
   5362   5364     1   0.10969 276646.080000
   5365   5366     1   0.10969 276646.080000
   5365   5367     1   0.10969 276646.080000
   5369   5370     1   0.10969 276646.080000
   5369   5371     1   0.10969 276646.080000
   5372   5373     1   0.10969 276646.080000
   5372   5374     1   0.10969 276646.080000
   5377   5378     1   0.09730 310787.520000
   5379   5380     1   0.10969 276646.080000
   5379   5381     1   0.10969 276646.080000
   5382   5383     1   0.10969 276646.080000
   5382   5384     1   0.10969 276646.080000
   5387   5388     1   0.09730 310787.520000
   5390   5391     1   0.10969 276646.080000
   5390   5392     1   0.10969 276646.080000
   5393   5394     1   0.10969 276646.080000
   5393   5395     1   0.10969 276646.080000
   5396   5397     1   0.10969 276646.080000
   5396   5398     1   0.10969 276646.080000
   5400   5401     1   0.10969 276646.080000
   5400   5402     1   0.10969 276646.080000
   5403   5404     1   0.10969 276646.080000
   5403   5405     1   0.10969 276646.080000
   5408   5409     1   0.09730 310787.520000
   5410   5411     1   0.10969 276646.080000
   5410   5412     1   0.10969 276646.080000
   5413   5414     1   0.10969 276646.080000
   5413   5415     1   0.10969 276646.080000
   5418   5419     1   0.09730 310787.520000
   5421   5422     1   0.10969 276646.080000
   5421   5423     1   0.10969 276646.080000
   5424   5425     1   0.10969 276646.080000
   5424   5426     1   0.10969 276646.080000
   5427   5428     1   0.10969 276646.080000
   5427   5429     1   0.10969 276646.080000
   5431   5432     1   0.10969 276646.080000
   5431   5433     1   0.10969 276646.080000
   5434   5435     1   0.10969 276646.080000
   5434   5436     1   0.10969 276646.080000
   5439   5440     1   0.09730 310787.520000
   5441   5442     1   0.10969 276646.080000
   5441   5443     1   0.10969 276646.080000
   5444   5445     1   0.10969 276646.080000
   5444   5446     1   0.10969 276646.080000
   5449   5450     1   0.09730 310787.520000
   5452   5453     1   0.10969 276646.080000
   5452   5454     1   0.10969 276646.080000
   5455   5456     1   0.10969 276646.080000
   5455   5457     1   0.10969 276646.080000
   5458   5459     1   0.10969 276646.080000
   5458   5460     1   0.10969 276646.080000
   5462   5463     1   0.10969 276646.080000
   5462   5464     1   0.10969 276646.080000
   5465   5466     1   0.10969 276646.080000
   5465   5467     1   0.10969 276646.080000
   5470   5471     1   0.09730 310787.520000
   5472   5473     1   0.10969 276646.080000
   5472   5474     1   0.10969 276646.080000
   5475   5476     1   0.10969 276646.080000
   5475   5477     1   0.10969 276646.080000
   5480   5481     1   0.09730 310787.520000
   5483   5484     1   0.10969 276646.080000
   5483   5485     1   0.10969 276646.080000
   5486   5487     1   0.10969 276646.080000
   5486   5488     1   0.10969 276646.080000
   5489   5490     1   0.10969 276646.080000
   5489   5491     1   0.10969 276646.080000
   5493   5494     1   0.10969 276646.080000
   5493   5495     1   0.10969 276646.080000
   5496   5497     1   0.10969 276646.080000
   5496   5498     1   0.10969 276646.080000
   5501   5502     1   0.09730 310787.520000
   5503   5504     1   0.10969 276646.080000
   5503   5505     1   0.10969 276646.080000
   5506   5507     1   0.10969 276646.080000
   5506   5508     1   0.10969 276646.080000
   5511   5512     1   0.09730 310787.520000
   5514   5515     1   0.10969 276646.080000
   5514   5516     1   0.10969 276646.080000
   5517   5518     1   0.10969 276646.080000
   5517   5519     1   0.10969 276646.080000
   5520   5521     1   0.10969 276646.080000
   5520   5522     1   0.10969 276646.080000
   5524   5525     1   0.10969 276646.080000
   5524   5526     1   0.10969 276646.080000
   5527   5528     1   0.10969 276646.080000
   5527   5529     1   0.10969 276646.080000
   5532   5533     1   0.09730 310787.520000
   5534   5535     1   0.10969 276646.080000
   5534   5536     1   0.10969 276646.080000
   5537   5538     1   0.10969 276646.080000
   5537   5539     1   0.10969 276646.080000
   5542   5543     1   0.09730 310787.520000
   5545   5546     1   0.10969 276646.080000
   5545   5547     1   0.10969 276646.080000
   5548   5549     1   0.10969 276646.080000
   5548   5550     1   0.10969 276646.080000
   5551   5552     1   0.10969 276646.080000
   5551   5553     1   0.10969 276646.080000
   5555   5556     1   0.10969 276646.080000
   5555   5557     1   0.10969 276646.080000
   5558   5559     1   0.10969 276646.080000
   5558   5560     1   0.10969 276646.080000
   5563   5564     1   0.09730 310787.520000
   5565   5566     1   0.10969 276646.080000
   5565   5567     1   0.10969 276646.080000
   5568   5569     1   0.10969 276646.080000
   5568   5570     1   0.10969 276646.080000
   5573   5574     1   0.09730 310787.520000
   5576   5577     1   0.10969 276646.080000
   5576   5578     1   0.10969 276646.080000
   5579   5580     1   0.10969 276646.080000
   5579   5581     1   0.10969 276646.080000
   5582   5583     1   0.10969 276646.080000
   5582   5584     1   0.10969 276646.080000
   5586   5587     1   0.10969 276646.080000
   5586   5588     1   0.10969 276646.080000
   5589   5590     1   0.10969 276646.080000
   5589   5591     1   0.10969 276646.080000
   5594   5595     1   0.09730 310787.520000
   5596   5597     1   0.10969 276646.080000
   5596   5598     1   0.10969 276646.080000
   5599   5600     1   0.10969 276646.080000
   5599   5601     1   0.10969 276646.080000
   5604   5605     1   0.09730 310787.520000
   5607   5608     1   0.10969 276646.080000
   5607   5609     1   0.10969 276646.080000
   5610   5611     1   0.10969 276646.080000
   5610   5612     1   0.10969 276646.080000
   5613   5614     1   0.10969 276646.080000
   5613   5615     1   0.10969 276646.080000
   5617   5618     1   0.10969 276646.080000
   5617   5619     1   0.10969 276646.080000
   5620   5621     1   0.10969 276646.080000
   5620   5622     1   0.10969 276646.080000
   5625   5626     1   0.09730 310787.520000
   5627   5628     1   0.10969 276646.080000
   5627   5629     1   0.10969 276646.080000
   5630   5631     1   0.10969 276646.080000
   5630   5632     1   0.10969 276646.080000
   5635   5636     1   0.09730 310787.520000
   5638   5639     1   0.10969 276646.080000
   5638   5640     1   0.10969 276646.080000
   5641   5642     1   0.10969 276646.080000
   5641   5643     1   0.10969 276646.080000
   5644   5645     1   0.10969 276646.080000
   5644   5646     1   0.10969 276646.080000
   5648   5649     1   0.10969 276646.080000
   5648   5650     1   0.10969 276646.080000
   5651   5652     1   0.10969 276646.080000
   5651   5653     1   0.10969 276646.080000
   5656   5657     1   0.09730 310787.520000
   5658   5659     1   0.10969 276646.080000
   5658   5660     1   0.10969 276646.080000
   5661   5662     1   0.10969 276646.080000
   5661   5663     1   0.10969 276646.080000
   5666   5667     1   0.09730 310787.520000
   5669   5670     1   0.10969 276646.080000
   5669   5671     1   0.10969 276646.080000
   5672   5673     1   0.10969 276646.080000
   5672   5674     1   0.10969 276646.080000
   5675   5676     1   0.10969 276646.080000
   5675   5677     1   0.10969 276646.080000
   5679   5680     1   0.10969 276646.080000
   5679   5681     1   0.10969 276646.080000
   5682   5683     1   0.10969 276646.080000
   5682   5684     1   0.10969 276646.080000
   5687   5688     1   0.09730 310787.520000
   5689   5690     1   0.10969 276646.080000
   5689   5691     1   0.10969 276646.080000
   5692   5693     1   0.10969 276646.080000
   5692   5694     1   0.10969 276646.080000
   5697   5698     1   0.09730 310787.520000
   5700   5701     1   0.10969 276646.080000
   5700   5702     1   0.10969 276646.080000
   5703   5704     1   0.10969 276646.080000
   5703   5705     1   0.10969 276646.080000
   5706   5707     1   0.10969 276646.080000
   5706   5708     1   0.10969 276646.080000
   5710   5711     1   0.10969 276646.080000
   5710   5712     1   0.10969 276646.080000
   5713   5714     1   0.10969 276646.080000
   5713   5715     1   0.10969 276646.080000
   5718   5719     1   0.09730 310787.520000
   5720   5721     1   0.10969 276646.080000
   5720   5722     1   0.10969 276646.080000
   5723   5724     1   0.10969 276646.080000
   5723   5725     1   0.10969 276646.080000
   5728   5729     1   0.09730 310787.520000
   5731   5732     1   0.10969 276646.080000
   5731   5733     1   0.10969 276646.080000
   5734   5735     1   0.10969 276646.080000
   5734   5736     1   0.10969 276646.080000
   5737   5738     1   0.10969 276646.080000
   5737   5739     1   0.10969 276646.080000
   5741   5742     1   0.10969 276646.080000
   5741   5743     1   0.10969 276646.080000
   5744   5745     1   0.10969 276646.080000
   5744   5746     1   0.10969 276646.080000
   5749   5750     1   0.09730 310787.520000
   5751   5752     1   0.10969 276646.080000
   5751   5753     1   0.10969 276646.080000
   5754   5755     1   0.10969 276646.080000
   5754   5756     1   0.10969 276646.080000
   5759   5760     1   0.09730 310787.520000
   5762   5763     1   0.10969 276646.080000
   5762   5764     1   0.10969 276646.080000
   5765   5766     1   0.10969 276646.080000
   5765   5767     1   0.10969 276646.080000
   5768   5769     1   0.10969 276646.080000
   5768   5770     1   0.10969 276646.080000
   5772   5773     1   0.10969 276646.080000
   5772   5774     1   0.10969 276646.080000
   5775   5776     1   0.10969 276646.080000
   5775   5777     1   0.10969 276646.080000
   5780   5781     1   0.09730 310787.520000
   5782   5783     1   0.10969 276646.080000
   5782   5784     1   0.10969 276646.080000
   5785   5786     1   0.10969 276646.080000
   5785   5787     1   0.10969 276646.080000
   5790   5791     1   0.09730 310787.520000
   5793   5794     1   0.10969 276646.080000
   5793   5795     1   0.10969 276646.080000
   5796   5797     1   0.10969 276646.080000
   5796   5798     1   0.10969 276646.080000
   5799   5800     1   0.10969 276646.080000
   5799   5801     1   0.10969 276646.080000
   5803   5804     1   0.10969 276646.080000
   5803   5805     1   0.10969 276646.080000
   5806   5807     1   0.10969 276646.080000
   5806   5808     1   0.10969 276646.080000
   5811   5812     1   0.09730 310787.520000
   5813   5814     1   0.10969 276646.080000
   5813   5815     1   0.10969 276646.080000
   5816   5817     1   0.10969 276646.080000
   5816   5818     1   0.10969 276646.080000
   5821   5822     1   0.09730 310787.520000
   5824   5825     1   0.10969 276646.080000
   5824   5826     1   0.10969 276646.080000
   5827   5828     1   0.10969 276646.080000
   5827   5829     1   0.10969 276646.080000
   5830   5831     1   0.10969 276646.080000
   5830   5832     1   0.10969 276646.080000
   5834   5835     1   0.10969 276646.080000
   5834   5836     1   0.10969 276646.080000
   5837   5838     1   0.10969 276646.080000
   5837   5839     1   0.10969 276646.080000
   5842   5843     1   0.09730 310787.520000
   5844   5845     1   0.10969 276646.080000
   5844   5846     1   0.10969 276646.080000
   5847   5848     1   0.10969 276646.080000
   5847   5849     1   0.10969 276646.080000
   5852   5853     1   0.09730 310787.520000
   5855   5856     1   0.10969 276646.080000
   5855   5857     1   0.10969 276646.080000
   5858   5859     1   0.10969 276646.080000
   5858   5860     1   0.10969 276646.080000
   5861   5862     1   0.10969 276646.080000
   5861   5863     1   0.10969 276646.080000
   5865   5866     1   0.10969 276646.080000
   5865   5867     1   0.10969 276646.080000
   5868   5869     1   0.10969 276646.080000
   5868   5870     1   0.10969 276646.080000
   5873   5874     1   0.09730 310787.520000
   5875   5876     1   0.10969 276646.080000
   5875   5877     1   0.10969 276646.080000
   5878   5879     1   0.10969 276646.080000
   5878   5880     1   0.10969 276646.080000
   5883   5884     1   0.09730 310787.520000
   5886   5887     1   0.10969 276646.080000
   5886   5888     1   0.10969 276646.080000
   5889   5890     1   0.10969 276646.080000
   5889   5891     1   0.10969 276646.080000
   5892   5893     1   0.10969 276646.080000
   5892   5894     1   0.10969 276646.080000
   5896   5897     1   0.10969 276646.080000
   5896   5898     1   0.10969 276646.080000
   5899   5900     1   0.10969 276646.080000
   5899   5901     1   0.10969 276646.080000
   5904   5905     1   0.09730 310787.520000
   5906   5907     1   0.10969 276646.080000
   5906   5908     1   0.10969 276646.080000
   5909   5910     1   0.10969 276646.080000
   5909   5911     1   0.10969 276646.080000
   5914   5915     1   0.09730 310787.520000
   5917   5918     1   0.10969 276646.080000
   5917   5919     1   0.10969 276646.080000
   5920   5921     1   0.10969 276646.080000
   5920   5922     1   0.10969 276646.080000
   5923   5924     1   0.10969 276646.080000
   5923   5925     1   0.10969 276646.080000
   5927   5928     1   0.10969 276646.080000
   5927   5929     1   0.10969 276646.080000
   5930   5931     1   0.10969 276646.080000
   5930   5932     1   0.10969 276646.080000
   5935   5936     1   0.09730 310787.520000
   5937   5938     1   0.10969 276646.080000
   5937   5939     1   0.10969 276646.080000
   5940   5941     1   0.10969 276646.080000
   5940   5942     1   0.10969 276646.080000
   5945   5946     1   0.09730 310787.520000
   5948   5949     1   0.10969 276646.080000
   5948   5950     1   0.10969 276646.080000
   5951   5952     1   0.10969 276646.080000
   5951   5953     1   0.10969 276646.080000
   5954   5955     1   0.10969 276646.080000
   5954   5956     1   0.10969 276646.080000
   5958   5959     1   0.10969 276646.080000
   5958   5960     1   0.10969 276646.080000
   5961   5962     1   0.10969 276646.080000
   5961   5963     1   0.10969 276646.080000
   5966   5967     1   0.09730 310787.520000
   5968   5969     1   0.10969 276646.080000
   5968   5970     1   0.10969 276646.080000
   5971   5972     1   0.10969 276646.080000
   5971   5973     1   0.10969 276646.080000
   5976   5977     1   0.09730 310787.520000
   5979   5980     1   0.10969 276646.080000
   5979   5981     1   0.10969 276646.080000
   5982   5983     1   0.10969 276646.080000
   5982   5984     1   0.10969 276646.080000
   5985   5986     1   0.10969 276646.080000
   5985   5987     1   0.10969 276646.080000
   5989   5990     1   0.10969 276646.080000
   5989   5991     1   0.10969 276646.080000
   5992   5993     1   0.10969 276646.080000
   5992   5994     1   0.10969 276646.080000
   5997   5998     1   0.09730 310787.520000
   5999   6000     1   0.10969 276646.080000
   5999   6001     1   0.10969 276646.080000
   6002   6003     1   0.10969 276646.080000
   6002   6004     1   0.10969 276646.080000
   6007   6008     1   0.09730 310787.520000
   6010   6011     1   0.10969 276646.080000
   6010   6012     1   0.10969 276646.080000
   6013   6014     1   0.10969 276646.080000
   6013   6015     1   0.10969 276646.080000
   6016   6017     1   0.10969 276646.080000
   6016   6018     1   0.10969 276646.080000
   6020   6021     1   0.10969 276646.080000
   6020   6022     1   0.10969 276646.080000
   6023   6024     1   0.10969 276646.080000
   6023   6025     1   0.10969 276646.080000
   6028   6029     1   0.09730 310787.520000
   6030   6031     1   0.10969 276646.080000
   6030   6032     1   0.10969 276646.080000
   6033   6034     1   0.10969 276646.080000
   6033   6035     1   0.10969 276646.080000
   6038   6039     1   0.09730 310787.520000
   6041   6042     1   0.10969 276646.080000
   6041   6043     1   0.10969 276646.080000
   6044   6045     1   0.10969 276646.080000
   6044   6046     1   0.10969 276646.080000
   6047   6048     1   0.10969 276646.080000
   6047   6049     1   0.10969 276646.080000
   6051   6052     1   0.10969 276646.080000
   6051   6053     1   0.10969 276646.080000
   6054   6055     1   0.10969 276646.080000
   6054   6056     1   0.10969 276646.080000
   6059   6060     1   0.09730 310787.520000
   6061   6062     1   0.10969 276646.080000
   6061   6063     1   0.10969 276646.080000
   6064   6065     1   0.10969 276646.080000
   6064   6066     1   0.10969 276646.080000
   6069   6070     1   0.09730 310787.520000
   6072   6073     1   0.10969 276646.080000
   6072   6074     1   0.10969 276646.080000
   6075   6076     1   0.10969 276646.080000
   6075   6077     1   0.10969 276646.080000
   6078   6079     1   0.10969 276646.080000
   6078   6080     1   0.10969 276646.080000
   6082   6083     1   0.10969 276646.080000
   6082   6084     1   0.10969 276646.080000
   6085   6086     1   0.10969 276646.080000
   6085   6087     1   0.10969 276646.080000
   6090   6091     1   0.09730 310787.520000
   6092   6093     1   0.10969 276646.080000
   6092   6094     1   0.10969 276646.080000
   6095   6096     1   0.10969 276646.080000
   6095   6097     1   0.10969 276646.080000
   6100   6101     1   0.09730 310787.520000
   6103   6104     1   0.10969 276646.080000
   6103   6105     1   0.10969 276646.080000
   6106   6107     1   0.10969 276646.080000
   6106   6108     1   0.10969 276646.080000
   6109   6110     1   0.10969 276646.080000
   6109   6111     1   0.10969 276646.080000
   6113   6114     1   0.10969 276646.080000
   6113   6115     1   0.10969 276646.080000
   6116   6117     1   0.10969 276646.080000
   6116   6118     1   0.10969 276646.080000
   6121   6122     1   0.09730 310787.520000
   6123   6124     1   0.10969 276646.080000
   6123   6125     1   0.10969 276646.080000
   6126   6127     1   0.10969 276646.080000
   6126   6128     1   0.10969 276646.080000
   6131   6132     1   0.09730 310787.520000
   6134   6135     1   0.10969 276646.080000
   6134   6136     1   0.10969 276646.080000
   6137   6138     1   0.10969 276646.080000
   6137   6139     1   0.10969 276646.080000
   6140   6141     1   0.10969 276646.080000
   6140   6142     1   0.10969 276646.080000
   6144   6145     1   0.10969 276646.080000
   6144   6146     1   0.10969 276646.080000
   6147   6148     1   0.10969 276646.080000
   6147   6149     1   0.10969 276646.080000
   6152   6153     1   0.09730 310787.520000
   6154   6155     1   0.10969 276646.080000
   6154   6156     1   0.10969 276646.080000
   6157   6158     1   0.10969 276646.080000
   6157   6159     1   0.10969 276646.080000
   6162   6163     1   0.09730 310787.520000
   6165   6166     1   0.10969 276646.080000
   6165   6167     1   0.10969 276646.080000
   6168   6169     1   0.10969 276646.080000
   6168   6170     1   0.10969 276646.080000
   6171   6172     1   0.10969 276646.080000
   6171   6173     1   0.10969 276646.080000
   6175   6176     1   0.10969 276646.080000
   6175   6177     1   0.10969 276646.080000
   6178   6179     1   0.10969 276646.080000
   6178   6180     1   0.10969 276646.080000
   6183   6184     1   0.09730 310787.520000
   6185   6186     1   0.10969 276646.080000
   6185   6187     1   0.10969 276646.080000
   6188   6189     1   0.10969 276646.080000
   6188   6190     1   0.10969 276646.080000
   6193   6194     1   0.09730 310787.520000
   6196   6197     1   0.10969 276646.080000
   6196   6198     1   0.10969 276646.080000
   6199   6200     1   0.10969 276646.080000
   6199   6201     1   0.10969 276646.080000
   6202   6203     1   0.10969 276646.080000
   6202   6204     1   0.10969 276646.080000
   6206   6207     1   0.10969 276646.080000
   6206   6208     1   0.10969 276646.080000
   6209   6210     1   0.10969 276646.080000
   6209   6211     1   0.10969 276646.080000
   6214   6215     1   0.09730 310787.520000
   6216   6217     1   0.10969 276646.080000
   6216   6218     1   0.10969 276646.080000
   6219   6220     1   0.10969 276646.080000
   6219   6221     1   0.10969 276646.080000
   6224   6225     1   0.09730 310787.520000
   6227   6228     1   0.10969 276646.080000
   6227   6229     1   0.10969 276646.080000
   6230   6231     1   0.10969 276646.080000
   6230   6232     1   0.10969 276646.080000
   6233   6234     1   0.10969 276646.080000
   6233   6235     1   0.10969 276646.080000
   6237   6238     1   0.10969 276646.080000
   6237   6239     1   0.10969 276646.080000
   6240   6241     1   0.10969 276646.080000
   6240   6242     1   0.10969 276646.080000
   6245   6246     1   0.09730 310787.520000
   6247   6248     1   0.10969 276646.080000
   6247   6249     1   0.10969 276646.080000
   6250   6251     1   0.10969 276646.080000
   6250   6252     1   0.10969 276646.080000
   6255   6256     1   0.09730 310787.520000
   6258   6259     1   0.10969 276646.080000
   6258   6260     1   0.10969 276646.080000
   6261   6262     1   0.10969 276646.080000
   6261   6263     1   0.10969 276646.080000
   6264   6265     1   0.10969 276646.080000
   6264   6266     1   0.10969 276646.080000
   6268   6269     1   0.10969 276646.080000
   6268   6270     1   0.10969 276646.080000
   6271   6272     1   0.10969 276646.080000
   6271   6273     1   0.10969 276646.080000
   6276   6277     1   0.09730 310787.520000
   6278   6279     1   0.10969 276646.080000
   6278   6280     1   0.10969 276646.080000
   6281   6282     1   0.10969 276646.080000
   6281   6283     1   0.10969 276646.080000
   6286   6287     1   0.09730 310787.520000
   6289   6290     1   0.10969 276646.080000
   6289   6291     1   0.10969 276646.080000
   6292   6293     1   0.10969 276646.080000
   6292   6294     1   0.10969 276646.080000
   6295   6296     1   0.10969 276646.080000
   6295   6297     1   0.10969 276646.080000
   6299   6300     1   0.10969 276646.080000
   6299   6301     1   0.10969 276646.080000
   6302   6303     1   0.10969 276646.080000
   6302   6304     1   0.10969 276646.080000
   6307   6308     1   0.09730 310787.520000
   6309   6310     1   0.10969 276646.080000
   6309   6311     1   0.10969 276646.080000
   6312   6313     1   0.10969 276646.080000
   6312   6314     1   0.10969 276646.080000
   6317   6318     1   0.09730 310787.520000
   6320   6321     1   0.10969 276646.080000
   6320   6322     1   0.10969 276646.080000
   6323   6324     1   0.10969 276646.080000
   6323   6325     1   0.10969 276646.080000
   6326   6327     1   0.10969 276646.080000
   6326   6328     1   0.10969 276646.080000
   6330   6331     1   0.10969 276646.080000
   6330   6332     1   0.10969 276646.080000
   6333   6334     1   0.10969 276646.080000
   6333   6335     1   0.10969 276646.080000
   6338   6339     1   0.09730 310787.520000
   6340   6341     1   0.10969 276646.080000
   6340   6342     1   0.10969 276646.080000
   6343   6344     1   0.10969 276646.080000
   6343   6345     1   0.10969 276646.080000
   6348   6349     1   0.09730 310787.520000
   6351   6352     1   0.10969 276646.080000
   6351   6353     1   0.10969 276646.080000
   6354   6355     1   0.10969 276646.080000
   6354   6356     1   0.10969 276646.080000
   6357   6358     1   0.10969 276646.080000
   6357   6359     1   0.10969 276646.080000
   6361   6362     1   0.10969 276646.080000
   6361   6363     1   0.10969 276646.080000
   6364   6365     1   0.10969 276646.080000
   6364   6366     1   0.10969 276646.080000
   6369   6370     1   0.09730 310787.520000
   6371   6372     1   0.10969 276646.080000
   6371   6373     1   0.10969 276646.080000
   6374   6375     1   0.10969 276646.080000
   6374   6376     1   0.10969 276646.080000
   6379   6380     1   0.09730 310787.520000
   6382   6383     1   0.10969 276646.080000
   6382   6384     1   0.10969 276646.080000
   6385   6386     1   0.10969 276646.080000
   6385   6387     1   0.10969 276646.080000
   6388   6389     1   0.10969 276646.080000
   6388   6390     1   0.10969 276646.080000
   6392   6393     1   0.10969 276646.080000
   6392   6394     1   0.10969 276646.080000
   6395   6396     1   0.10969 276646.080000
   6395   6397     1   0.10969 276646.080000
   6400   6401     1   0.09730 310787.520000
   6402   6403     1   0.10969 276646.080000
   6402   6404     1   0.10969 276646.080000
   6405   6406     1   0.10969 276646.080000
   6405   6407     1   0.10969 276646.080000
   6410   6411     1   0.09730 310787.520000
   6413   6414     1   0.10969 276646.080000
   6413   6415     1   0.10969 276646.080000
   6416   6417     1   0.10969 276646.080000
   6416   6418     1   0.10969 276646.080000
   6419   6420     1   0.10969 276646.080000
   6419   6421     1   0.10969 276646.080000
   6423   6424     1   0.10969 276646.080000
   6423   6425     1   0.10969 276646.080000
   6426   6427     1   0.10969 276646.080000
   6426   6428     1   0.10969 276646.080000
   6431   6432     1   0.09730 310787.520000
   6433   6434     1   0.10969 276646.080000
   6433   6435     1   0.10969 276646.080000
   6436   6437     1   0.10969 276646.080000
   6436   6438     1   0.10969 276646.080000
   6441   6442     1   0.09730 310787.520000
   6444   6445     1   0.10969 276646.080000
   6444   6446     1   0.10969 276646.080000
   6447   6448     1   0.10969 276646.080000
   6447   6449     1   0.10969 276646.080000
   6450   6451     1   0.10969 276646.080000
   6450   6452     1   0.10969 276646.080000
   6454   6455     1   0.10969 276646.080000
   6454   6456     1   0.10969 276646.080000
   6457   6458     1   0.10969 276646.080000
   6457   6459     1   0.10969 276646.080000
   6462   6463     1   0.09730 310787.520000
   6464   6465     1   0.10969 276646.080000
   6464   6466     1   0.10969 276646.080000
   6467   6468     1   0.10969 276646.080000
   6467   6469     1   0.10969 276646.080000
   6472   6473     1   0.09730 310787.520000
   6475   6476     1   0.10969 276646.080000
   6475   6477     1   0.10969 276646.080000
   6478   6479     1   0.10969 276646.080000
   6478   6480     1   0.10969 276646.080000
   6481   6482     1   0.10969 276646.080000
   6481   6483     1   0.10969 276646.080000
   6485   6486     1   0.10969 276646.080000
   6485   6487     1   0.10969 276646.080000
   6488   6489     1   0.10969 276646.080000
   6488   6490     1   0.10969 276646.080000
   6493   6494     1   0.09730 310787.520000
   6495   6496     1   0.10969 276646.080000
   6495   6497     1   0.10969 276646.080000
   6498   6499     1   0.10969 276646.080000
   6498   6500     1   0.10969 276646.080000
   6503   6504     1   0.09730 310787.520000
   6506   6507     1   0.10969 276646.080000
   6506   6508     1   0.10969 276646.080000
   6509   6510     1   0.10969 276646.080000
   6509   6511     1   0.10969 276646.080000
   6512   6513     1   0.10969 276646.080000
   6512   6514     1   0.10969 276646.080000
   6516   6517     1   0.10969 276646.080000
   6516   6518     1   0.10969 276646.080000
   6519   6520     1   0.10969 276646.080000
   6519   6521     1   0.10969 276646.080000
   6524   6525     1   0.09730 310787.520000
   6526   6527     1   0.10969 276646.080000
   6526   6528     1   0.10969 276646.080000
   6529   6530     1   0.10969 276646.080000
   6529   6531     1   0.10969 276646.080000
   6534   6535     1   0.09730 310787.520000
   6537   6538     1   0.10969 276646.080000
   6537   6539     1   0.10969 276646.080000
   6540   6541     1   0.10969 276646.080000
   6540   6542     1   0.10969 276646.080000
   6543   6544     1   0.10969 276646.080000
   6543   6545     1   0.10969 276646.080000
   6547   6548     1   0.10969 276646.080000
   6547   6549     1   0.10969 276646.080000
   6550   6551     1   0.10969 276646.080000
   6550   6552     1   0.10969 276646.080000
   6555   6556     1   0.09730 310787.520000
   6557   6558     1   0.10969 276646.080000
   6557   6559     1   0.10969 276646.080000
   6560   6561     1   0.10969 276646.080000
   6560   6562     1   0.10969 276646.080000
   6565   6566     1   0.09730 310787.520000
   6568   6569     1   0.10969 276646.080000
   6568   6570     1   0.10969 276646.080000
   6571   6572     1   0.10969 276646.080000
   6571   6573     1   0.10969 276646.080000
   6574   6575     1   0.10969 276646.080000
   6574   6576     1   0.10969 276646.080000
   6578   6579     1   0.10969 276646.080000
   6578   6580     1   0.10969 276646.080000
   6581   6582     1   0.10969 276646.080000
   6581   6583     1   0.10969 276646.080000
   6586   6587     1   0.09730 310787.520000
   6588   6589     1   0.10969 276646.080000
   6588   6590     1   0.10969 276646.080000
   6591   6592     1   0.10969 276646.080000
   6591   6593     1   0.10969 276646.080000
   6596   6597     1   0.09730 310787.520000
   6599   6600     1   0.10969 276646.080000
   6599   6601     1   0.10969 276646.080000
   6602   6603     1   0.10969 276646.080000
   6602   6604     1   0.10969 276646.080000
   6605   6606     1   0.10969 276646.080000
   6605   6607     1   0.10969 276646.080000
   6609   6610     1   0.10969 276646.080000
   6609   6611     1   0.10969 276646.080000
   6612   6613     1   0.10969 276646.080000
   6612   6614     1   0.10969 276646.080000
   6617   6618     1   0.09730 310787.520000
   6619   6620     1   0.10969 276646.080000
   6619   6621     1   0.10969 276646.080000
   6622   6623     1   0.10969 276646.080000
   6622   6624     1   0.10969 276646.080000
   6627   6628     1   0.09730 310787.520000
   6630   6631     1   0.10969 276646.080000
   6630   6632     1   0.10969 276646.080000
   6633   6634     1   0.10969 276646.080000
   6633   6635     1   0.10969 276646.080000
   6636   6637     1   0.10969 276646.080000
   6636   6638     1   0.10969 276646.080000
   6640   6641     1   0.10969 276646.080000
   6640   6642     1   0.10969 276646.080000
   6643   6644     1   0.10969 276646.080000
   6643   6645     1   0.10969 276646.080000
   6648   6649     1   0.09730 310787.520000
   6650   6651     1   0.10969 276646.080000
   6650   6652     1   0.10969 276646.080000
   6653   6654     1   0.10969 276646.080000
   6653   6655     1   0.10969 276646.080000
   6658   6659     1   0.09730 310787.520000
   6661   6662     1   0.10969 276646.080000
   6661   6663     1   0.10969 276646.080000
   6664   6665     1   0.10969 276646.080000
   6664   6666     1   0.10969 276646.080000
   6667   6668     1   0.10969 276646.080000
   6667   6669     1   0.10969 276646.080000
   6671   6672     1   0.10969 276646.080000
   6671   6673     1   0.10969 276646.080000
   6674   6675     1   0.10969 276646.080000
   6674   6676     1   0.10969 276646.080000
   6679   6680     1   0.09730 310787.520000
   6681   6682     1   0.10969 276646.080000
   6681   6683     1   0.10969 276646.080000
   6684   6685     1   0.10969 276646.080000
   6684   6686     1   0.10969 276646.080000
   6689   6690     1   0.09730 310787.520000
   6692   6693     1   0.10969 276646.080000
   6692   6694     1   0.10969 276646.080000
   6695   6696     1   0.10969 276646.080000
   6695   6697     1   0.10969 276646.080000
   6698   6699     1   0.10969 276646.080000
   6698   6700     1   0.10969 276646.080000
   6702   6703     1   0.10969 276646.080000
   6702   6704     1   0.10969 276646.080000
   6705   6706     1   0.10969 276646.080000
   6705   6707     1   0.10969 276646.080000
   6710   6711     1   0.09730 310787.520000
   6712   6713     1   0.10969 276646.080000
   6712   6714     1   0.10969 276646.080000
   6715   6716     1   0.10969 276646.080000
   6715   6717     1   0.10969 276646.080000
   6720   6721     1   0.09730 310787.520000
   6723   6724     1   0.10969 276646.080000
   6723   6725     1   0.10969 276646.080000
   6726   6727     1   0.10969 276646.080000
   6726   6728     1   0.10969 276646.080000
   6729   6730     1   0.10969 276646.080000
   6729   6731     1   0.10969 276646.080000
   6733   6734     1   0.10969 276646.080000
   6733   6735     1   0.10969 276646.080000
   6736   6737     1   0.10969 276646.080000
   6736   6738     1   0.10969 276646.080000
   6741   6742     1   0.09730 310787.520000
   6743   6744     1   0.10969 276646.080000
   6743   6745     1   0.10969 276646.080000
   6746   6747     1   0.10969 276646.080000
   6746   6748     1   0.10969 276646.080000
   6751   6752     1   0.09730 310787.520000
   6754   6755     1   0.10969 276646.080000
   6754   6756     1   0.10969 276646.080000
   6757   6758     1   0.10969 276646.080000
   6757   6759     1   0.10969 276646.080000
   6760   6761     1   0.10969 276646.080000
   6760   6762     1   0.10969 276646.080000
   6764   6765     1   0.10969 276646.080000
   6764   6766     1   0.10969 276646.080000
   6767   6768     1   0.10969 276646.080000
   6767   6769     1   0.10969 276646.080000
   6772   6773     1   0.09730 310787.520000
   6774   6775     1   0.10969 276646.080000
   6774   6776     1   0.10969 276646.080000
   6777   6778     1   0.10969 276646.080000
   6777   6779     1   0.10969 276646.080000
   6782   6783     1   0.09730 310787.520000
   6785   6786     1   0.10969 276646.080000
   6785   6787     1   0.10969 276646.080000
   6788   6789     1   0.10969 276646.080000
   6788   6790     1   0.10969 276646.080000
   6791   6792     1   0.10969 276646.080000
   6791   6793     1   0.10969 276646.080000
   6795   6796     1   0.10969 276646.080000
   6795   6797     1   0.10969 276646.080000
   6798   6799     1   0.10969 276646.080000
   6798   6800     1   0.10969 276646.080000
   6803   6804     1   0.09730 310787.520000
   6805   6806     1   0.10969 276646.080000
   6805   6807     1   0.10969 276646.080000
   6808   6809     1   0.10969 276646.080000
   6808   6810     1   0.10969 276646.080000
   6813   6814     1   0.09730 310787.520000
   6816   6817     1   0.10969 276646.080000
   6816   6818     1   0.10969 276646.080000
   6819   6820     1   0.10969 276646.080000
   6819   6821     1   0.10969 276646.080000
   6822   6823     1   0.10969 276646.080000
   6822   6824     1   0.10969 276646.080000
   6826   6827     1   0.10969 276646.080000
   6826   6828     1   0.10969 276646.080000
   6829   6830     1   0.10969 276646.080000
   6829   6831     1   0.10969 276646.080000
   6834   6835     1   0.09730 310787.520000
   6836   6837     1   0.10969 276646.080000
   6836   6838     1   0.10969 276646.080000
   6839   6840     1   0.10969 276646.080000
   6839   6841     1   0.10969 276646.080000
   6844   6845     1   0.09730 310787.520000
   6847   6848     1   0.10969 276646.080000
   6847   6849     1   0.10969 276646.080000
   6850   6851     1   0.10969 276646.080000
   6850   6852     1   0.10969 276646.080000
   6853   6854     1   0.10969 276646.080000
   6853   6855     1   0.10969 276646.080000
   6857   6858     1   0.10969 276646.080000
   6857   6859     1   0.10969 276646.080000
   6860   6861     1   0.10969 276646.080000
   6860   6862     1   0.10969 276646.080000
   6865   6866     1   0.09730 310787.520000
   6867   6868     1   0.10969 276646.080000
   6867   6869     1   0.10969 276646.080000
   6870   6871     1   0.10969 276646.080000
   6870   6872     1   0.10969 276646.080000
   6875   6876     1   0.09730 310787.520000
   6878   6879     1   0.10969 276646.080000
   6878   6880     1   0.10969 276646.080000
   6881   6882     1   0.10969 276646.080000
   6881   6883     1   0.10969 276646.080000
   6884   6885     1   0.10969 276646.080000
   6884   6886     1   0.10969 276646.080000
   6888   6889     1   0.10969 276646.080000
   6888   6890     1   0.10969 276646.080000
   6891   6892     1   0.10969 276646.080000
   6891   6893     1   0.10969 276646.080000
   6896   6897     1   0.09730 310787.520000
   6898   6899     1   0.10969 276646.080000
   6898   6900     1   0.10969 276646.080000
   6901   6902     1   0.10969 276646.080000
   6901   6903     1   0.10969 276646.080000
   6906   6907     1   0.09730 310787.520000
   6909   6910     1   0.10969 276646.080000
   6909   6911     1   0.10969 276646.080000
   6912   6913     1   0.10969 276646.080000
   6912   6914     1   0.10969 276646.080000
   6915   6916     1   0.10969 276646.080000
   6915   6917     1   0.10969 276646.080000
   6919   6920     1   0.10969 276646.080000
   6919   6921     1   0.10969 276646.080000
   6922   6923     1   0.10969 276646.080000
   6922   6924     1   0.10969 276646.080000
   6927   6928     1   0.09730 310787.520000
   6929   6930     1   0.10969 276646.080000
   6929   6931     1   0.10969 276646.080000
   6932   6933     1   0.10969 276646.080000
   6932   6934     1   0.10969 276646.080000
   6937   6938     1   0.09730 310787.520000
   6940   6941     1   0.10969 276646.080000
   6940   6942     1   0.10969 276646.080000
   6943   6944     1   0.10969 276646.080000
   6943   6945     1   0.10969 276646.080000
   6946   6947     1   0.10969 276646.080000
   6946   6948     1   0.10969 276646.080000
   6950   6951     1   0.10969 276646.080000
   6950   6952     1   0.10969 276646.080000
   6953   6954     1   0.10969 276646.080000
   6953   6955     1   0.10969 276646.080000
   6958   6959     1   0.09730 310787.520000
   6960   6961     1   0.10969 276646.080000
   6960   6962     1   0.10969 276646.080000
   6963   6964     1   0.10969 276646.080000
   6963   6965     1   0.10969 276646.080000
   6968   6969     1   0.09730 310787.520000
   6971   6972     1   0.10969 276646.080000
   6971   6973     1   0.10969 276646.080000
   6974   6975     1   0.10969 276646.080000
   6974   6976     1   0.10969 276646.080000
   6977   6978     1   0.10969 276646.080000
   6977   6979     1   0.10969 276646.080000
   6981   6982     1   0.10969 276646.080000
   6981   6983     1   0.10969 276646.080000
   6984   6985     1   0.10969 276646.080000
   6984   6986     1   0.10969 276646.080000
   6989   6990     1   0.09730 310787.520000
   6991   6992     1   0.10969 276646.080000
   6991   6993     1   0.10969 276646.080000
   6994   6995     1   0.10969 276646.080000
   6994   6996     1   0.10969 276646.080000
   6999   7000     1   0.09730 310787.520000
   7002   7003     1   0.10969 276646.080000
   7002   7004     1   0.10969 276646.080000
   7005   7006     1   0.10969 276646.080000
   7005   7007     1   0.10969 276646.080000
   7008   7009     1   0.10969 276646.080000
   7008   7010     1   0.10969 276646.080000
   7012   7013     1   0.10969 276646.080000
   7012   7014     1   0.10969 276646.080000
   7015   7016     1   0.10969 276646.080000
   7015   7017     1   0.10969 276646.080000
   7020   7021     1   0.09730 310787.520000
   7022   7023     1   0.10969 276646.080000
   7022   7024     1   0.10969 276646.080000
   7025   7026     1   0.10969 276646.080000
   7025   7027     1   0.10969 276646.080000
   7030   7031     1   0.09730 310787.520000
   7033   7034     1   0.10969 276646.080000
   7033   7035     1   0.10969 276646.080000
   7036   7037     1   0.10969 276646.080000
   7036   7038     1   0.10969 276646.080000
   7039   7040     1   0.10969 276646.080000
   7039   7041     1   0.10969 276646.080000
   7043   7044     1   0.10969 276646.080000
   7043   7045     1   0.10969 276646.080000
   7046   7047     1   0.10969 276646.080000
   7046   7048     1   0.10969 276646.080000
   7051   7052     1   0.09730 310787.520000
   7053   7054     1   0.10969 276646.080000
   7053   7055     1   0.10969 276646.080000
   7056   7057     1   0.10969 276646.080000
   7056   7058     1   0.10969 276646.080000
   7061   7062     1   0.09730 310787.520000
   7064   7065     1   0.10969 276646.080000
   7064   7066     1   0.10969 276646.080000
   7067   7068     1   0.10969 276646.080000
   7067   7069     1   0.10969 276646.080000
   7070   7071     1   0.10969 276646.080000
   7070   7072     1   0.10969 276646.080000
   7074   7075     1   0.10969 276646.080000
   7074   7076     1   0.10969 276646.080000
   7077   7078     1   0.10969 276646.080000
   7077   7079     1   0.10969 276646.080000
   7082   7083     1   0.09730 310787.520000
   7084   7085     1   0.10969 276646.080000
   7084   7086     1   0.10969 276646.080000
   7087   7088     1   0.10969 276646.080000
   7087   7089     1   0.10969 276646.080000
   7092   7093     1   0.09730 310787.520000
   7095   7096     1   0.10969 276646.080000
   7095   7097     1   0.10969 276646.080000
   7098   7099     1   0.10969 276646.080000
   7098   7100     1   0.10969 276646.080000
   7101   7102     1   0.10969 276646.080000
   7101   7103     1   0.10969 276646.080000
   7105   7106     1   0.10969 276646.080000
   7105   7107     1   0.10969 276646.080000
   7108   7109     1   0.10969 276646.080000
   7108   7110     1   0.10969 276646.080000
   7113   7114     1   0.09730 310787.520000
   7115   7116     1   0.10969 276646.080000
   7115   7117     1   0.10969 276646.080000
   7118   7119     1   0.10969 276646.080000
   7118   7120     1   0.10969 276646.080000
   7123   7124     1   0.09730 310787.520000
   7126   7127     1   0.10969 276646.080000
   7126   7128     1   0.10969 276646.080000
   7129   7130     1   0.10969 276646.080000
   7129   7131     1   0.10969 276646.080000
   7132   7133     1   0.10969 276646.080000
   7132   7134     1   0.10969 276646.080000
   7136   7137     1   0.10969 276646.080000
   7136   7138     1   0.10969 276646.080000
   7139   7140     1   0.10969 276646.080000
   7139   7141     1   0.10969 276646.080000
   7144   7145     1   0.09730 310787.520000
   7146   7147     1   0.10969 276646.080000
   7146   7148     1   0.10969 276646.080000
   7149   7150     1   0.10969 276646.080000
   7149   7151     1   0.10969 276646.080000
   7154   7155     1   0.09730 310787.520000
   7157   7158     1   0.10969 276646.080000
   7157   7159     1   0.10969 276646.080000
   7160   7161     1   0.10969 276646.080000
   7160   7162     1   0.10969 276646.080000
   7163   7164     1   0.10969 276646.080000
   7163   7165     1   0.10969 276646.080000
   7167   7168     1   0.10969 276646.080000
   7167   7169     1   0.10969 276646.080000
   7170   7171     1   0.10969 276646.080000
   7170   7172     1   0.10969 276646.080000
   7175   7176     1   0.09730 310787.520000
   7177   7178     1   0.10969 276646.080000
   7177   7179     1   0.10969 276646.080000
   7180   7181     1   0.10969 276646.080000
   7180   7182     1   0.10969 276646.080000
   7185   7186     1   0.09730 310787.520000
   7188   7189     1   0.10969 276646.080000
   7188   7190     1   0.10969 276646.080000
   7191   7192     1   0.10969 276646.080000
   7191   7193     1   0.10969 276646.080000
   7194   7195     1   0.10969 276646.080000
   7194   7196     1   0.10969 276646.080000
   7198   7199     1   0.10969 276646.080000
   7198   7200     1   0.10969 276646.080000
   7201   7202     1   0.10969 276646.080000
   7201   7203     1   0.10969 276646.080000
   7206   7207     1   0.09730 310787.520000
   7208   7209     1   0.10969 276646.080000
   7208   7210     1   0.10969 276646.080000
   7211   7212     1   0.10969 276646.080000
   7211   7213     1   0.10969 276646.080000
   7216   7217     1   0.09730 310787.520000
   7219   7220     1   0.10969 276646.080000
   7219   7221     1   0.10969 276646.080000
   7222   7223     1   0.10969 276646.080000
   7222   7224     1   0.10969 276646.080000
   7225   7226     1   0.10969 276646.080000
   7225   7227     1   0.10969 276646.080000
   7229   7230     1   0.10969 276646.080000
   7229   7231     1   0.10969 276646.080000
   7232   7233     1   0.10969 276646.080000
   7232   7234     1   0.10969 276646.080000
   7237   7238     1   0.09730 310787.520000
   7239   7240     1   0.10969 276646.080000
   7239   7241     1   0.10969 276646.080000
   7242   7243     1   0.10969 276646.080000
   7242   7244     1   0.10969 276646.080000
   7247   7248     1   0.09730 310787.520000
   7250   7251     1   0.10969 276646.080000
   7250   7252     1   0.10969 276646.080000
   7253   7254     1   0.10969 276646.080000
   7253   7255     1   0.10969 276646.080000
   7256   7257     1   0.10969 276646.080000
   7256   7258     1   0.10969 276646.080000
   7260   7261     1   0.10969 276646.080000
   7260   7262     1   0.10969 276646.080000
   7263   7264     1   0.10969 276646.080000
   7263   7265     1   0.10969 276646.080000
   7268   7269     1   0.09730 310787.520000
   7270   7271     1   0.10969 276646.080000
   7270   7272     1   0.10969 276646.080000
   7273   7274     1   0.10969 276646.080000
   7273   7275     1   0.10969 276646.080000
   7278   7279     1   0.09730 310787.520000
   7281   7282     1   0.10969 276646.080000
   7281   7283     1   0.10969 276646.080000
   7284   7285     1   0.10969 276646.080000
   7284   7286     1   0.10969 276646.080000
   7287   7288     1   0.10969 276646.080000
   7287   7289     1   0.10969 276646.080000
   7291   7292     1   0.10969 276646.080000
   7291   7293     1   0.10969 276646.080000
   7294   7295     1   0.10969 276646.080000
   7294   7296     1   0.10969 276646.080000
   7299   7300     1   0.09730 310787.520000
   7301   7302     1   0.10969 276646.080000
   7301   7303     1   0.10969 276646.080000
   7304   7305     1   0.10969 276646.080000
   7304   7306     1   0.10969 276646.080000
   7309   7310     1   0.09730 310787.520000
   7312   7313     1   0.10969 276646.080000
   7312   7314     1   0.10969 276646.080000
   7315   7316     1   0.10969 276646.080000
   7315   7317     1   0.10969 276646.080000
   7318   7319     1   0.10969 276646.080000
   7318   7320     1   0.10969 276646.080000
   7322   7323     1   0.10969 276646.080000
   7322   7324     1   0.10969 276646.080000
   7325   7326     1   0.10969 276646.080000
   7325   7327     1   0.10969 276646.080000
   7330   7331     1   0.09730 310787.520000
   7332   7333     1   0.10969 276646.080000
   7332   7334     1   0.10969 276646.080000
   7335   7336     1   0.10969 276646.080000
   7335   7337     1   0.10969 276646.080000
   7340   7341     1   0.09730 310787.520000
   7343   7344     1   0.10969 276646.080000
   7343   7345     1   0.10969 276646.080000
   7346   7347     1   0.10969 276646.080000
   7346   7348     1   0.10969 276646.080000
   7349   7350     1   0.10969 276646.080000
   7349   7351     1   0.10969 276646.080000
   7353   7354     1   0.10969 276646.080000
   7353   7355     1   0.10969 276646.080000
   7356   7357     1   0.10969 276646.080000
   7356   7358     1   0.10969 276646.080000
   7361   7362     1   0.09730 310787.520000
   7363   7364     1   0.10969 276646.080000
   7363   7365     1   0.10969 276646.080000
   7366   7367     1   0.10969 276646.080000
   7366   7368     1   0.10969 276646.080000
   7371   7372     1   0.09730 310787.520000
   7374   7375     1   0.10969 276646.080000
   7374   7376     1   0.10969 276646.080000
   7377   7378     1   0.10969 276646.080000
   7377   7379     1   0.10969 276646.080000
   7380   7381     1   0.10969 276646.080000
   7380   7382     1   0.10969 276646.080000
   7384   7385     1   0.10969 276646.080000
   7384   7386     1   0.10969 276646.080000
   7387   7388     1   0.10969 276646.080000
   7387   7389     1   0.10969 276646.080000
   7392   7393     1   0.09730 310787.520000
   7394   7395     1   0.10969 276646.080000
   7394   7396     1   0.10969 276646.080000
   7397   7398     1   0.10969 276646.080000
   7397   7399     1   0.10969 276646.080000
   7402   7403     1   0.09730 310787.520000
   7405   7406     1   0.10969 276646.080000
   7405   7407     1   0.10969 276646.080000
   7408   7409     1   0.10969 276646.080000
   7408   7410     1   0.10969 276646.080000
   7411   7412     1   0.10969 276646.080000
   7411   7413     1   0.10969 276646.080000
   7415   7416     1   0.10969 276646.080000
   7415   7417     1   0.10969 276646.080000
   7418   7419     1   0.10969 276646.080000
   7418   7420     1   0.10969 276646.080000
   7423   7424     1   0.09730 310787.520000
   7425   7426     1   0.10969 276646.080000
   7425   7427     1   0.10969 276646.080000
   7428   7429     1   0.10969 276646.080000
   7428   7430     1   0.10969 276646.080000
   7433   7434     1   0.09730 310787.520000
   7436   7437     1   0.10969 276646.080000
   7436   7438     1   0.10969 276646.080000
   7439   7440     1   0.10969 276646.080000
   7439   7441     1   0.10969 276646.080000
   7442   7443     1   0.10969 276646.080000
   7442   7444     1   0.10969 276646.080000
   7446   7447     1   0.10969 276646.080000
   7446   7448     1   0.10969 276646.080000
   7449   7450     1   0.10969 276646.080000
   7449   7451     1   0.10969 276646.080000
   7454   7455     1   0.09730 310787.520000
   7456   7457     1   0.10969 276646.080000
   7456   7458     1   0.10969 276646.080000
   7459   7460     1   0.10969 276646.080000
   7459   7461     1   0.10969 276646.080000
   7464   7465     1   0.09730 310787.520000
   7467   7468     1   0.10969 276646.080000
   7467   7469     1   0.10969 276646.080000
   7470   7471     1   0.10969 276646.080000
   7470   7472     1   0.10969 276646.080000
   7473   7474     1   0.10969 276646.080000
   7473   7475     1   0.10969 276646.080000
   7477   7478     1   0.10969 276646.080000
   7477   7479     1   0.10969 276646.080000
   7480   7481     1   0.10969 276646.080000
   7480   7482     1   0.10969 276646.080000
   7485   7486     1   0.09730 310787.520000
   7487   7488     1   0.10969 276646.080000
   7487   7489     1   0.10969 276646.080000
   7490   7491     1   0.10969 276646.080000
   7490   7492     1   0.10969 276646.080000
   7495   7496     1   0.09730 310787.520000
   7498   7499     1   0.10969 276646.080000
   7498   7500     1   0.10969 276646.080000
   7501   7502     1   0.10969 276646.080000
   7501   7503     1   0.10969 276646.080000
   7504   7505     1   0.10969 276646.080000
   7504   7506     1   0.10969 276646.080000
   7508   7509     1   0.10969 276646.080000
   7508   7510     1   0.10969 276646.080000
   7511   7512     1   0.10969 276646.080000
   7511   7513     1   0.10969 276646.080000
   7516   7517     1   0.09730 310787.520000
   7518   7519     1   0.10969 276646.080000
   7518   7520     1   0.10969 276646.080000
   7521   7522     1   0.10969 276646.080000
   7521   7523     1   0.10969 276646.080000
   7526   7527     1   0.09730 310787.520000
   7529   7530     1   0.10969 276646.080000
   7529   7531     1   0.10969 276646.080000
   7532   7533     1   0.10969 276646.080000
   7532   7534     1   0.10969 276646.080000
   7535   7536     1   0.10969 276646.080000
   7535   7537     1   0.10969 276646.080000
   7539   7540     1   0.10969 276646.080000
   7539   7541     1   0.10969 276646.080000
   7542   7543     1   0.10969 276646.080000
   7542   7544     1   0.10969 276646.080000
   7547   7548     1   0.09730 310787.520000
   7549   7550     1   0.10969 276646.080000
   7549   7551     1   0.10969 276646.080000
   7552   7553     1   0.10969 276646.080000
   7552   7554     1   0.10969 276646.080000
   7557   7558     1   0.09730 310787.520000
   7560   7561     1   0.10969 276646.080000
   7560   7562     1   0.10969 276646.080000
   7563   7564     1   0.10969 276646.080000
   7563   7565     1   0.10969 276646.080000
   7566   7567     1   0.10969 276646.080000
   7566   7568     1   0.10969 276646.080000
   7570   7571     1   0.10969 276646.080000
   7570   7572     1   0.10969 276646.080000
   7573   7574     1   0.10969 276646.080000
   7573   7575     1   0.10969 276646.080000
   7578   7579     1   0.09730 310787.520000
   7580   7581     1   0.10969 276646.080000
   7580   7582     1   0.10969 276646.080000
   7583   7584     1   0.10969 276646.080000
   7583   7585     1   0.10969 276646.080000
   7588   7589     1   0.09730 310787.520000
   7591   7592     1   0.10969 276646.080000
   7591   7593     1   0.10969 276646.080000
   7594   7595     1   0.10969 276646.080000
   7594   7596     1   0.10969 276646.080000
   7597   7598     1   0.10969 276646.080000
   7597   7599     1   0.10969 276646.080000
   7601   7602     1   0.10969 276646.080000
   7601   7603     1   0.10969 276646.080000
   7604   7605     1   0.10969 276646.080000
   7604   7606     1   0.10969 276646.080000
   7609   7610     1   0.09730 310787.520000
   7611   7612     1   0.10969 276646.080000
   7611   7613     1   0.10969 276646.080000
   7614   7615     1   0.10969 276646.080000
   7614   7616     1   0.10969 276646.080000
   7619   7620     1   0.09730 310787.520000

[ pairs ]
;    ai     aj funct         c0         c1         c2         c3
      1     14     1
      1     17     1
      2     11     1
      2     20     1
      5      8     1
      5     21     1
      8     28     1
      8     31     1
     11     22     1
     11     25     1
     14     40     1
     14     43     1
     17     34     1
     17     37     1
     20     49     1
     20     46     1
     21     55     1
     21     52     1
     22     37     1
     22    173     1
     25     34     1
     25    144     1
     28     43     1
     28    115     1
     31     40     1
     31     86     1
     34    164     1
     37    135     1
     40    106     1
     43     77     1
     46     68     1
     49     97     1
     52    126     1
     55    155     1
     58     83     1
     58     80     1
     58     77     1
     59     74     1
     59     68     1
     59    231     1
     62     71     1
     62     68     1
     62    202     1
     65     71     1
     65     74     1
     65     86     1
     71    222     1
     74    193     1
     80    184     1
     83    213     1
     87    112     1
     87    109     1
     87    106     1
     88    103     1
     88     97     1
     88    289     1
     91    100     1
     91     97     1
     91    260     1
     94    100     1
     94    103     1
     94    115     1
    100    280     1
    103    251     1
    109    242     1
    112    271     1
    116    141     1
    116    138     1
    116    135     1
    117    132     1
    117    126     1
    117    347     1
    120    129     1
    120    126     1
    120    318     1
    123    129     1
    123    132     1
    123    144     1
    129    338     1
    132    309     1
    138    300     1
    141    329     1
    145    170     1
    145    167     1
    145    164     1
    146    161     1
    146    155     1
    146    405     1
    149    158     1
    149    155     1
    149    376     1
    152    158     1
    152    161     1
    152    173     1
    158    396     1
    161    367     1
    167    358     1
    170    387     1
    174    199     1
    174    196     1
    174    193     1
    175    190     1
    175    184     1
    175    463     1
    178    187     1
    178    184     1
    178    434     1
    181    187     1
    181    190     1
    181    202     1
    187    454     1
    190    425     1
    196    416     1
    199    445     1
    203    228     1
    203    225     1
    203    222     1
    204    219     1
    204    213     1
    204    521     1
    207    216     1
    207    213     1
    207    492     1
    210    216     1
    210    219     1
    210    231     1
    216    512     1
    219    483     1
    225    474     1
    228    503     1
    232    257     1
    232    254     1
    232    251     1
    233    248     1
    233    242     1
    233    579     1
    236    245     1
    236    242     1
    236    550     1
    239    245     1
    239    248     1
    239    260     1
    245    570     1
    248    541     1
    254    532     1
    257    561     1
    261    286     1
    261    283     1
    261    280     1
    262    277     1
    262    271     1
    262    637     1
    265    274     1
    265    271     1
    265    608     1
    268    274     1
    268    277     1
    268    289     1
    274    628     1
    277    599     1
    283    590     1
    286    619     1
    290    315     1
    290    312     1
    290    309     1
    291    306     1
    291    300     1
    291    695     1
    294    303     1
    294    300     1
    294    666     1
    297    303     1
    297    306     1
    297    318     1
    303    686     1
    306    657     1
    312    648     1
    315    677     1
    319    344     1
    319    341     1
    319    338     1
    320    335     1
    320    329     1
    320    753     1
    323    332     1
    323    329     1
    323    724     1
    326    332     1
    326    335     1
    326    347     1
    332    744     1
    335    715     1
    341    706     1
    344    735     1
    348    373     1
    348    370     1
    348    367     1
    349    364     1
    349    358     1
    349    811     1
    352    361     1
    352    358     1
    352    782     1
    355    361     1
    355    364     1
    355    376     1
    361    802     1
    364    773     1
    370    764     1
    373    793     1
    377    402     1
    377    399     1
    377    396     1
    378    393     1
    378    387     1
    378    869     1
    381    390     1
    381    387     1
    381    840     1
    384    390     1
    384    393     1
    384    405     1
    390    860     1
    393    831     1
    399    822     1
    402    851     1
    406    431     1
    406    428     1
    406    425     1
    407    422     1
    407    416     1
    407    927     1
    410    419     1
    410    416     1
    410    898     1
    413    419     1
    413    422     1
    413    434     1
    419    918     1
    422    889     1
    428    880     1
    431    909     1
    435    460     1
    435    457     1
    435    454     1
    436    451     1
    436    445     1
    436    985     1
    439    448     1
    439    445     1
    439    956     1
    442    448     1
    442    451     1
    442    463     1
    448    976     1
    451    947     1
    457    938     1
    460    967     1
    464    489     1
    464    486     1
    464    483     1
    465    480     1
    465    474     1
    465   1043     1
    468    477     1
    468    474     1
    468   1014     1
    471    477     1
    471    480     1
    471    492     1
    477   1034     1
    480   1005     1
    486    996     1
    489   1025     1
    493    518     1
    493    515     1
    493    512     1
    494    509     1
    494    503     1
    494   1101     1
    497    506     1
    497    503     1
    497   1072     1
    500    506     1
    500    509     1
    500    521     1
    506   1092     1
    509   1063     1
    515   1054     1
    518   1083     1
    522    547     1
    522    544     1
    522    541     1
    523    538     1
    523    532     1
    523   1159     1
    526    535     1
    526    532     1
    526   1130     1
    529    535     1
    529    538     1
    529    550     1
    535   1150     1
    538   1121     1
    544   1112     1
    547   1141     1
    551    576     1
    551    573     1
    551    570     1
    552    567     1
    552    561     1
    552   1217     1
    555    564     1
    555    561     1
    555   1188     1
    558    564     1
    558    567     1
    558    579     1
    564   1208     1
    567   1179     1
    573   1170     1
    576   1199     1
    580    605     1
    580    602     1
    580    599     1
    581    596     1
    581    590     1
    581   1275     1
    584    593     1
    584    590     1
    584   1246     1
    587    593     1
    587    596     1
    587    608     1
    593   1266     1
    596   1237     1
    602   1228     1
    605   1257     1
    609    634     1
    609    631     1
    609    628     1
    610    625     1
    610    619     1
    610   1333     1
    613    622     1
    613    619     1
    613   1304     1
    616    622     1
    616    625     1
    616    637     1
    622   1324     1
    625   1295     1
    631   1286     1
    634   1315     1
    638    663     1
    638    660     1
    638    657     1
    639    654     1
    639    648     1
    639   1391     1
    642    651     1
    642    648     1
    642   1362     1
    645    651     1
    645    654     1
    645    666     1
    651   1382     1
    654   1353     1
    660   1344     1
    663   1373     1
    667    692     1
    667    689     1
    667    686     1
    668    683     1
    668    677     1
    668   1449     1
    671    680     1
    671    677     1
    671   1420     1
    674    680     1
    674    683     1
    674    695     1
    680   1440     1
    683   1411     1
    689   1402     1
    692   1431     1
    696    721     1
    696    718     1
    696    715     1
    697    712     1
    697    706     1
    697   1507     1
    700    709     1
    700    706     1
    700   1478     1
    703    709     1
    703    712     1
    703    724     1
    709   1498     1
    712   1469     1
    718   1460     1
    721   1489     1
    725    750     1
    725    747     1
    725    744     1
    726    741     1
    726    735     1
    726   1565     1
    729    738     1
    729    735     1
    729   1536     1
    732    738     1
    732    741     1
    732    753     1
    738   1556     1
    741   1527     1
    747   1518     1
    750   1547     1
    754    779     1
    754    776     1
    754    773     1
    755    770     1
    755    764     1
    755   1623     1
    758    767     1
    758    764     1
    758   1594     1
    761    767     1
    761    770     1
    761    782     1
    767   1614     1
    770   1585     1
    776   1576     1
    779   1605     1
    783    808     1
    783    805     1
    783    802     1
    784    799     1
    784    793     1
    784   1681     1
    787    796     1
    787    793     1
    787   1652     1
    790    796     1
    790    799     1
    790    811     1
    796   1672     1
    799   1643     1
    805   1634     1
    808   1663     1
    812    837     1
    812    834     1
    812    831     1
    813    828     1
    813    822     1
    813   1739     1
    816    825     1
    816    822     1
    816   1710     1
    819    825     1
    819    828     1
    819    840     1
    825   1730     1
    828   1701     1
    834   1692     1
    837   1721     1
    841    866     1
    841    863     1
    841    860     1
    842    857     1
    842    851     1
    842   1797     1
    845    854     1
    845    851     1
    845   1768     1
    848    854     1
    848    857     1
    848    869     1
    854   1788     1
    857   1759     1
    863   1750     1
    866   1779     1
    870    895     1
    870    892     1
    870    889     1
    871    886     1
    871    880     1
    871   1855     1
    874    883     1
    874    880     1
    874   1826     1
    877    883     1
    877    886     1
    877    898     1
    883   1846     1
    886   1817     1
    892   1808     1
    895   1837     1
    899    924     1
    899    921     1
    899    918     1
    900    915     1
    900    909     1
    900   1913     1
    903    912     1
    903    909     1
    903   1884     1
    906    912     1
    906    915     1
    906    927     1
    912   1904     1
    915   1875     1
    921   1866     1
    924   1895     1
    928    953     1
    928    950     1
    928    947     1
    929    944     1
    929    938     1
    929   1971     1
    932    941     1
    932    938     1
    932   1942     1
    935    941     1
    935    944     1
    935    956     1
    941   1962     1
    944   1933     1
    950   1924     1
    953   1953     1
    957    982     1
    957    979     1
    957    976     1
    958    973     1
    958    967     1
    958   2029     1
    961    970     1
    961    967     1
    961   2000     1
    964    970     1
    964    973     1
    964    985     1
    970   2020     1
    973   1991     1
    979   1982     1
    982   2011     1
    986   1011     1
    986   1008     1
    986   1005     1
    987   1002     1
    987    996     1
    987   2087     1
    990    999     1
    990    996     1
    990   2058     1
    993    999     1
    993   1002     1
    993   1014     1
    999   2078     1
   1002   2049     1
   1008   2040     1
   1011   2069     1
   1015   1040     1
   1015   1037     1
   1015   1034     1
   1016   1031     1
   1016   1025     1
   1016   2145     1
   1019   1028     1
   1019   1025     1
   1019   2116     1
   1022   1028     1
   1022   1031     1
   1022   1043     1
   1028   2136     1
   1031   2107     1
   1037   2098     1
   1040   2127     1
   1044   1069     1
   1044   1066     1
   1044   1063     1
   1045   1060     1
   1045   1054     1
   1045   2203     1
   1048   1057     1
   1048   1054     1
   1048   2174     1
   1051   1057     1
   1051   1060     1
   1051   1072     1
   1057   2194     1
   1060   2165     1
   1066   2156     1
   1069   2185     1
   1073   1098     1
   1073   1095     1
   1073   1092     1
   1074   1089     1
   1074   1083     1
   1074   2261     1
   1077   1086     1
   1077   1083     1
   1077   2232     1
   1080   1086     1
   1080   1089     1
   1080   1101     1
   1086   2252     1
   1089   2223     1
   1095   2214     1
   1098   2243     1
   1102   1127     1
   1102   1124     1
   1102   1121     1
   1103   1118     1
   1103   1112     1
   1103   2319     1
   1106   1115     1
   1106   1112     1
   1106   2290     1
   1109   1115     1
   1109   1118     1
   1109   1130     1
   1115   2310     1
   1118   2281     1
   1124   2272     1
   1127   2301     1
   1131   1156     1
   1131   1153     1
   1131   1150     1
   1132   1147     1
   1132   1141     1
   1132   2377     1
   1135   1144     1
   1135   1141     1
   1135   2348     1
   1138   1144     1
   1138   1147     1
   1138   1159     1
   1144   2368     1
   1147   2339     1
   1153   2330     1
   1156   2359     1
   1160   1185     1
   1160   1182     1
   1160   1179     1
   1161   1176     1
   1161   1170     1
   1161   2435     1
   1164   1173     1
   1164   1170     1
   1164   2406     1
   1167   1173     1
   1167   1176     1
   1167   1188     1
   1173   2426     1
   1176   2397     1
   1182   2388     1
   1185   2417     1
   1189   1214     1
   1189   1211     1
   1189   1208     1
   1190   1205     1
   1190   1199     1
   1190   2493     1
   1193   1202     1
   1193   1199     1
   1193   2464     1
   1196   1202     1
   1196   1205     1
   1196   1217     1
   1202   2484     1
   1205   2455     1
   1211   2446     1
   1214   2475     1
   1218   1243     1
   1218   1240     1
   1218   1237     1
   1219   1234     1
   1219   1228     1
   1219   2551     1
   1222   1231     1
   1222   1228     1
   1222   2522     1
   1225   1231     1
   1225   1234     1
   1225   1246     1
   1231   2542     1
   1234   2513     1
   1240   2504     1
   1243   2533     1
   1247   1272     1
   1247   1269     1
   1247   1266     1
   1248   1263     1
   1248   1257     1
   1248   2609     1
   1251   1260     1
   1251   1257     1
   1251   2580     1
   1254   1260     1
   1254   1263     1
   1254   1275     1
   1260   2600     1
   1263   2571     1
   1269   2562     1
   1272   2591     1
   1276   1301     1
   1276   1298     1
   1276   1295     1
   1277   1292     1
   1277   1286     1
   1277   2667     1
   1280   1289     1
   1280   1286     1
   1280   2638     1
   1283   1289     1
   1283   1292     1
   1283   1304     1
   1289   2658     1
   1292   2629     1
   1298   2620     1
   1301   2649     1
   1305   1330     1
   1305   1327     1
   1305   1324     1
   1306   1321     1
   1306   1315     1
   1306   2725     1
   1309   1318     1
   1309   1315     1
   1309   2696     1
   1312   1318     1
   1312   1321     1
   1312   1333     1
   1318   2716     1
   1321   2687     1
   1327   2678     1
   1330   2707     1
   1334   1359     1
   1334   1356     1
   1334   1353     1
   1335   1350     1
   1335   1344     1
   1335   2783     1
   1338   1347     1
   1338   1344     1
   1338   2754     1
   1341   1347     1
   1341   1350     1
   1341   1362     1
   1347   2774     1
   1350   2745     1
   1356   2736     1
   1359   2765     1
   1363   1388     1
   1363   1385     1
   1363   1382     1
   1364   1379     1
   1364   1373     1
   1364   2841     1
   1367   1376     1
   1367   1373     1
   1367   2812     1
   1370   1376     1
   1370   1379     1
   1370   1391     1
   1376   2832     1
   1379   2803     1
   1385   2794     1
   1388   2823     1
   1392   1417     1
   1392   1414     1
   1392   1411     1
   1393   1408     1
   1393   1402     1
   1393   2899     1
   1396   1405     1
   1396   1402     1
   1396   2870     1
   1399   1405     1
   1399   1408     1
   1399   1420     1
   1405   2890     1
   1408   2861     1
   1414   2852     1
   1417   2881     1
   1421   1446     1
   1421   1443     1
   1421   1440     1
   1422   1437     1
   1422   1431     1
   1422   2957     1
   1425   1434     1
   1425   1431     1
   1425   2928     1
   1428   1434     1
   1428   1437     1
   1428   1449     1
   1434   2948     1
   1437   2919     1
   1443   2910     1
   1446   2939     1
   1450   1475     1
   1450   1472     1
   1450   1469     1
   1451   1466     1
   1451   1460     1
   1451   3015     1
   1454   1463     1
   1454   1460     1
   1454   2986     1
   1457   1463     1
   1457   1466     1
   1457   1478     1
   1463   3006     1
   1466   2977     1
   1472   2968     1
   1475   2997     1
   1479   1504     1
   1479   1501     1
   1479   1498     1
   1480   1495     1
   1480   1489     1
   1480   3073     1
   1483   1492     1
   1483   1489     1
   1483   3044     1
   1486   1492     1
   1486   1495     1
   1486   1507     1
   1492   3064     1
   1495   3035     1
   1501   3026     1
   1504   3055     1
   1508   1533     1
   1508   1530     1
   1508   1527     1
   1509   1524     1
   1509   1518     1
   1509   3131     1
   1512   1521     1
   1512   1518     1
   1512   3102     1
   1515   1521     1
   1515   1524     1
   1515   1536     1
   1521   3122     1
   1524   3093     1
   1530   3084     1
   1533   3113     1
   1537   1562     1
   1537   1559     1
   1537   1556     1
   1538   1553     1
   1538   1547     1
   1538   3189     1
   1541   1550     1
   1541   1547     1
   1541   3160     1
   1544   1550     1
   1544   1553     1
   1544   1565     1
   1550   3180     1
   1553   3151     1
   1559   3142     1
   1562   3171     1
   1566   1591     1
   1566   1588     1
   1566   1585     1
   1567   1582     1
   1567   1576     1
   1567   3247     1
   1570   1579     1
   1570   1576     1
   1570   3218     1
   1573   1579     1
   1573   1582     1
   1573   1594     1
   1579   3238     1
   1582   3209     1
   1588   3200     1
   1591   3229     1
   1595   1620     1
   1595   1617     1
   1595   1614     1
   1596   1611     1
   1596   1605     1
   1596   3305     1
   1599   1608     1
   1599   1605     1
   1599   3276     1
   1602   1608     1
   1602   1611     1
   1602   1623     1
   1608   3296     1
   1611   3267     1
   1617   3258     1
   1620   3287     1
   1624   1649     1
   1624   1646     1
   1624   1643     1
   1625   1640     1
   1625   1634     1
   1625   3363     1
   1628   1637     1
   1628   1634     1
   1628   3334     1
   1631   1637     1
   1631   1640     1
   1631   1652     1
   1637   3354     1
   1640   3325     1
   1646   3316     1
   1649   3345     1
   1653   1678     1
   1653   1675     1
   1653   1672     1
   1654   1669     1
   1654   1663     1
   1654   3421     1
   1657   1666     1
   1657   1663     1
   1657   3392     1
   1660   1666     1
   1660   1669     1
   1660   1681     1
   1666   3412     1
   1669   3383     1
   1675   3374     1
   1678   3403     1
   1682   1707     1
   1682   1704     1
   1682   1701     1
   1683   1698     1
   1683   1692     1
   1683   3479     1
   1686   1695     1
   1686   1692     1
   1686   3450     1
   1689   1695     1
   1689   1698     1
   1689   1710     1
   1695   3470     1
   1698   3441     1
   1704   3432     1
   1707   3461     1
   1711   1736     1
   1711   1733     1
   1711   1730     1
   1712   1727     1
   1712   1721     1
   1712   3537     1
   1715   1724     1
   1715   1721     1
   1715   3508     1
   1718   1724     1
   1718   1727     1
   1718   1739     1
   1724   3528     1
   1727   3499     1
   1733   3490     1
   1736   3519     1
   1740   1765     1
   1740   1762     1
   1740   1759     1
   1741   1756     1
   1741   1750     1
   1741   3595     1
   1744   1753     1
   1744   1750     1
   1744   3566     1
   1747   1753     1
   1747   1756     1
   1747   1768     1
   1753   3586     1
   1756   3557     1
   1762   3548     1
   1765   3577     1
   1769   1794     1
   1769   1791     1
   1769   1788     1
   1770   1785     1
   1770   1779     1
   1770   3653     1
   1773   1782     1
   1773   1779     1
   1773   3624     1
   1776   1782     1
   1776   1785     1
   1776   1797     1
   1782   3644     1
   1785   3615     1
   1791   3606     1
   1794   3635     1
   1798   1823     1
   1798   1820     1
   1798   1817     1
   1799   1814     1
   1799   1808     1
   1799   3715     1
   1802   1811     1
   1802   1808     1
   1802   3684     1
   1805   1811     1
   1805   1814     1
   1805   1826     1
   1811   3685     1
   1814   3654     1
   1820   3657     1
   1823   3688     1
   1827   1852     1
   1827   1849     1
   1827   1846     1
   1828   1843     1
   1828   1837     1
   1828   3777     1
   1831   1840     1
   1831   1837     1
   1831   3746     1
   1834   1840     1
   1834   1843     1
   1834   1855     1
   1840   3747     1
   1843   3716     1
   1849   3719     1
   1852   3750     1
   1856   1881     1
   1856   1878     1
   1856   1875     1
   1857   1872     1
   1857   1866     1
   1857   3839     1
   1860   1869     1
   1860   1866     1
   1860   3808     1
   1863   1869     1
   1863   1872     1
   1863   1884     1
   1869   3809     1
   1872   3778     1
   1878   3781     1
   1881   3812     1
   1885   1910     1
   1885   1907     1
   1885   1904     1
   1886   1901     1
   1886   1895     1
   1886   3901     1
   1889   1898     1
   1889   1895     1
   1889   3870     1
   1892   1898     1
   1892   1901     1
   1892   1913     1
   1898   3871     1
   1901   3840     1
   1907   3843     1
   1910   3874     1
   1914   1939     1
   1914   1936     1
   1914   1933     1
   1915   1930     1
   1915   1924     1
   1915   3963     1
   1918   1927     1
   1918   1924     1
   1918   3932     1
   1921   1927     1
   1921   1930     1
   1921   1942     1
   1927   3933     1
   1930   3902     1
   1936   3905     1
   1939   3936     1
   1943   1968     1
   1943   1965     1
   1943   1962     1
   1944   1959     1
   1944   1953     1
   1944   4025     1
   1947   1956     1
   1947   1953     1
   1947   3994     1
   1950   1956     1
   1950   1959     1
   1950   1971     1
   1956   3995     1
   1959   3964     1
   1965   3967     1
   1968   3998     1
   1972   1997     1
   1972   1994     1
   1972   1991     1
   1973   1988     1
   1973   1982     1
   1973   4087     1
   1976   1985     1
   1976   1982     1
   1976   4056     1
   1979   1985     1
   1979   1988     1
   1979   2000     1
   1985   4057     1
   1988   4026     1
   1994   4029     1
   1997   4060     1
   2001   2026     1
   2001   2023     1
   2001   2020     1
   2002   2017     1
   2002   2011     1
   2002   4149     1
   2005   2014     1
   2005   2011     1
   2005   4118     1
   2008   2014     1
   2008   2017     1
   2008   2029     1
   2014   4119     1
   2017   4088     1
   2023   4091     1
   2026   4122     1
   2030   2055     1
   2030   2052     1
   2030   2049     1
   2031   2046     1
   2031   2040     1
   2031   4211     1
   2034   2043     1
   2034   2040     1
   2034   4180     1
   2037   2043     1
   2037   2046     1
   2037   2058     1
   2043   4181     1
   2046   4150     1
   2052   4153     1
   2055   4184     1
   2059   2084     1
   2059   2081     1
   2059   2078     1
   2060   2075     1
   2060   2069     1
   2060   4273     1
   2063   2072     1
   2063   2069     1
   2063   4242     1
   2066   2072     1
   2066   2075     1
   2066   2087     1
   2072   4243     1
   2075   4212     1
   2081   4215     1
   2084   4246     1
   2088   2113     1
   2088   2110     1
   2088   2107     1
   2089   2104     1
   2089   2098     1
   2089   4335     1
   2092   2101     1
   2092   2098     1
   2092   4304     1
   2095   2101     1
   2095   2104     1
   2095   2116     1
   2101   4305     1
   2104   4274     1
   2110   4277     1
   2113   4308     1
   2117   2142     1
   2117   2139     1
   2117   2136     1
   2118   2133     1
   2118   2127     1
   2118   4397     1
   2121   2130     1
   2121   2127     1
   2121   4366     1
   2124   2130     1
   2124   2133     1
   2124   2145     1
   2130   4367     1
   2133   4336     1
   2139   4339     1
   2142   4370     1
   2146   2171     1
   2146   2168     1
   2146   2165     1
   2147   2162     1
   2147   2156     1
   2147   4459     1
   2150   2159     1
   2150   2156     1
   2150   4428     1
   2153   2159     1
   2153   2162     1
   2153   2174     1
   2159   4429     1
   2162   4398     1
   2168   4401     1
   2171   4432     1
   2175   2200     1
   2175   2197     1
   2175   2194     1
   2176   2191     1
   2176   2185     1
   2176   4521     1
   2179   2188     1
   2179   2185     1
   2179   4490     1
   2182   2188     1
   2182   2191     1
   2182   2203     1
   2188   4491     1
   2191   4460     1
   2197   4463     1
   2200   4494     1
   2204   2229     1
   2204   2226     1
   2204   2223     1
   2205   2220     1
   2205   2214     1
   2205   4583     1
   2208   2217     1
   2208   2214     1
   2208   4552     1
   2211   2217     1
   2211   2220     1
   2211   2232     1
   2217   4553     1
   2220   4522     1
   2226   4525     1
   2229   4556     1
   2233   2258     1
   2233   2255     1
   2233   2252     1
   2234   2249     1
   2234   2243     1
   2234   4645     1
   2237   2246     1
   2237   2243     1
   2237   4614     1
   2240   2246     1
   2240   2249     1
   2240   2261     1
   2246   4615     1
   2249   4584     1
   2255   4587     1
   2258   4618     1
   2262   2287     1
   2262   2284     1
   2262   2281     1
   2263   2278     1
   2263   2272     1
   2263   4707     1
   2266   2275     1
   2266   2272     1
   2266   4676     1
   2269   2275     1
   2269   2278     1
   2269   2290     1
   2275   4677     1
   2278   4646     1
   2284   4649     1
   2287   4680     1
   2291   2316     1
   2291   2313     1
   2291   2310     1
   2292   2307     1
   2292   2301     1
   2292   4769     1
   2295   2304     1
   2295   2301     1
   2295   4738     1
   2298   2304     1
   2298   2307     1
   2298   2319     1
   2304   4739     1
   2307   4708     1
   2313   4711     1
   2316   4742     1
   2320   2345     1
   2320   2342     1
   2320   2339     1
   2321   2336     1
   2321   2330     1
   2321   4831     1
   2324   2333     1
   2324   2330     1
   2324   4800     1
   2327   2333     1
   2327   2336     1
   2327   2348     1
   2333   4801     1
   2336   4770     1
   2342   4773     1
   2345   4804     1
   2349   2374     1
   2349   2371     1
   2349   2368     1
   2350   2365     1
   2350   2359     1
   2350   4893     1
   2353   2362     1
   2353   2359     1
   2353   4862     1
   2356   2362     1
   2356   2365     1
   2356   2377     1
   2362   4863     1
   2365   4832     1
   2371   4835     1
   2374   4866     1
   2378   2403     1
   2378   2400     1
   2378   2397     1
   2379   2394     1
   2379   2388     1
   2379   4955     1
   2382   2391     1
   2382   2388     1
   2382   4924     1
   2385   2391     1
   2385   2394     1
   2385   2406     1
   2391   4925     1
   2394   4894     1
   2400   4897     1
   2403   4928     1
   2407   2432     1
   2407   2429     1
   2407   2426     1
   2408   2423     1
   2408   2417     1
   2408   5017     1
   2411   2420     1
   2411   2417     1
   2411   4986     1
   2414   2420     1
   2414   2423     1
   2414   2435     1
   2420   4987     1
   2423   4956     1
   2429   4959     1
   2432   4990     1
   2436   2461     1
   2436   2458     1
   2436   2455     1
   2437   2452     1
   2437   2446     1
   2437   5079     1
   2440   2449     1
   2440   2446     1
   2440   5048     1
   2443   2449     1
   2443   2452     1
   2443   2464     1
   2449   5049     1
   2452   5018     1
   2458   5021     1
   2461   5052     1
   2465   2490     1
   2465   2487     1
   2465   2484     1
   2466   2481     1
   2466   2475     1
   2466   5141     1
   2469   2478     1
   2469   2475     1
   2469   5110     1
   2472   2478     1
   2472   2481     1
   2472   2493     1
   2478   5111     1
   2481   5080     1
   2487   5083     1
   2490   5114     1
   2494   2519     1
   2494   2516     1
   2494   2513     1
   2495   2510     1
   2495   2504     1
   2495   5203     1
   2498   2507     1
   2498   2504     1
   2498   5172     1
   2501   2507     1
   2501   2510     1
   2501   2522     1
   2507   5173     1
   2510   5142     1
   2516   5145     1
   2519   5176     1
   2523   2548     1
   2523   2545     1
   2523   2542     1
   2524   2539     1
   2524   2533     1
   2524   5265     1
   2527   2536     1
   2527   2533     1
   2527   5234     1
   2530   2536     1
   2530   2539     1
   2530   2551     1
   2536   5235     1
   2539   5204     1
   2545   5207     1
   2548   5238     1
   2552   2577     1
   2552   2574     1
   2552   2571     1
   2553   2568     1
   2553   2562     1
   2553   5327     1
   2556   2565     1
   2556   2562     1
   2556   5296     1
   2559   2565     1
   2559   2568     1
   2559   2580     1
   2565   5297     1
   2568   5266     1
   2574   5269     1
   2577   5300     1
   2581   2606     1
   2581   2603     1
   2581   2600     1
   2582   2597     1
   2582   2591     1
   2582   5389     1
   2585   2594     1
   2585   2591     1
   2585   5358     1
   2588   2594     1
   2588   2597     1
   2588   2609     1
   2594   5359     1
   2597   5328     1
   2603   5331     1
   2606   5362     1
   2610   2635     1
   2610   2632     1
   2610   2629     1
   2611   2626     1
   2611   2620     1
   2611   5451     1
   2614   2623     1
   2614   2620     1
   2614   5420     1
   2617   2623     1
   2617   2626     1
   2617   2638     1
   2623   5421     1
   2626   5390     1
   2632   5393     1
   2635   5424     1
   2639   2664     1
   2639   2661     1
   2639   2658     1
   2640   2655     1
   2640   2649     1
   2640   5513     1
   2643   2652     1
   2643   2649     1
   2643   5482     1
   2646   2652     1
   2646   2655     1
   2646   2667     1
   2652   5483     1
   2655   5452     1
   2661   5455     1
   2664   5486     1
   2668   2693     1
   2668   2690     1
   2668   2687     1
   2669   2684     1
   2669   2678     1
   2669   5575     1
   2672   2681     1
   2672   2678     1
   2672   5544     1
   2675   2681     1
   2675   2684     1
   2675   2696     1
   2681   5545     1
   2684   5514     1
   2690   5517     1
   2693   5548     1
   2697   2722     1
   2697   2719     1
   2697   2716     1
   2698   2713     1
   2698   2707     1
   2698   5637     1
   2701   2710     1
   2701   2707     1
   2701   5606     1
   2704   2710     1
   2704   2713     1
   2704   2725     1
   2710   5607     1
   2713   5576     1
   2719   5579     1
   2722   5610     1
   2726   2751     1
   2726   2748     1
   2726   2745     1
   2727   2742     1
   2727   2736     1
   2727   5699     1
   2730   2739     1
   2730   2736     1
   2730   5668     1
   2733   2739     1
   2733   2742     1
   2733   2754     1
   2739   5669     1
   2742   5638     1
   2748   5641     1
   2751   5672     1
   2755   2780     1
   2755   2777     1
   2755   2774     1
   2756   2771     1
   2756   2765     1
   2756   5761     1
   2759   2768     1
   2759   2765     1
   2759   5730     1
   2762   2768     1
   2762   2771     1
   2762   2783     1
   2768   5731     1
   2771   5700     1
   2777   5703     1
   2780   5734     1
   2784   2809     1
   2784   2806     1
   2784   2803     1
   2785   2800     1
   2785   2794     1
   2785   5823     1
   2788   2797     1
   2788   2794     1
   2788   5792     1
   2791   2797     1
   2791   2800     1
   2791   2812     1
   2797   5793     1
   2800   5762     1
   2806   5765     1
   2809   5796     1
   2813   2838     1
   2813   2835     1
   2813   2832     1
   2814   2829     1
   2814   2823     1
   2814   5885     1
   2817   2826     1
   2817   2823     1
   2817   5854     1
   2820   2826     1
   2820   2829     1
   2820   2841     1
   2826   5855     1
   2829   5824     1
   2835   5827     1
   2838   5858     1
   2842   2867     1
   2842   2864     1
   2842   2861     1
   2843   2858     1
   2843   2852     1
   2843   5947     1
   2846   2855     1
   2846   2852     1
   2846   5916     1
   2849   2855     1
   2849   2858     1
   2849   2870     1
   2855   5917     1
   2858   5886     1
   2864   5889     1
   2867   5920     1
   2871   2896     1
   2871   2893     1
   2871   2890     1
   2872   2887     1
   2872   2881     1
   2872   6009     1
   2875   2884     1
   2875   2881     1
   2875   5978     1
   2878   2884     1
   2878   2887     1
   2878   2899     1
   2884   5979     1
   2887   5948     1
   2893   5951     1
   2896   5982     1
   2900   2925     1
   2900   2922     1
   2900   2919     1
   2901   2916     1
   2901   2910     1
   2901   6071     1
   2904   2913     1
   2904   2910     1
   2904   6040     1
   2907   2913     1
   2907   2916     1
   2907   2928     1
   2913   6041     1
   2916   6010     1
   2922   6013     1
   2925   6044     1
   2929   2954     1
   2929   2951     1
   2929   2948     1
   2930   2945     1
   2930   2939     1
   2930   6133     1
   2933   2942     1
   2933   2939     1
   2933   6102     1
   2936   2942     1
   2936   2945     1
   2936   2957     1
   2942   6103     1
   2945   6072     1
   2951   6075     1
   2954   6106     1
   2958   2983     1
   2958   2980     1
   2958   2977     1
   2959   2974     1
   2959   2968     1
   2959   6195     1
   2962   2971     1
   2962   2968     1
   2962   6164     1
   2965   2971     1
   2965   2974     1
   2965   2986     1
   2971   6165     1
   2974   6134     1
   2980   6137     1
   2983   6168     1
   2987   3012     1
   2987   3009     1
   2987   3006     1
   2988   3003     1
   2988   2997     1
   2988   6257     1
   2991   3000     1
   2991   2997     1
   2991   6226     1
   2994   3000     1
   2994   3003     1
   2994   3015     1
   3000   6227     1
   3003   6196     1
   3009   6199     1
   3012   6230     1
   3016   3041     1
   3016   3038     1
   3016   3035     1
   3017   3032     1
   3017   3026     1
   3017   6319     1
   3020   3029     1
   3020   3026     1
   3020   6288     1
   3023   3029     1
   3023   3032     1
   3023   3044     1
   3029   6289     1
   3032   6258     1
   3038   6261     1
   3041   6292     1
   3045   3070     1
   3045   3067     1
   3045   3064     1
   3046   3061     1
   3046   3055     1
   3046   6381     1
   3049   3058     1
   3049   3055     1
   3049   6350     1
   3052   3058     1
   3052   3061     1
   3052   3073     1
   3058   6351     1
   3061   6320     1
   3067   6323     1
   3070   6354     1
   3074   3099     1
   3074   3096     1
   3074   3093     1
   3075   3090     1
   3075   3084     1
   3075   6443     1
   3078   3087     1
   3078   3084     1
   3078   6412     1
   3081   3087     1
   3081   3090     1
   3081   3102     1
   3087   6413     1
   3090   6382     1
   3096   6385     1
   3099   6416     1
   3103   3128     1
   3103   3125     1
   3103   3122     1
   3104   3119     1
   3104   3113     1
   3104   6505     1
   3107   3116     1
   3107   3113     1
   3107   6474     1
   3110   3116     1
   3110   3119     1
   3110   3131     1
   3116   6475     1
   3119   6444     1
   3125   6447     1
   3128   6478     1
   3132   3157     1
   3132   3154     1
   3132   3151     1
   3133   3148     1
   3133   3142     1
   3133   6567     1
   3136   3145     1
   3136   3142     1
   3136   6536     1
   3139   3145     1
   3139   3148     1
   3139   3160     1
   3145   6537     1
   3148   6506     1
   3154   6509     1
   3157   6540     1
   3161   3186     1
   3161   3183     1
   3161   3180     1
   3162   3177     1
   3162   3171     1
   3162   6629     1
   3165   3174     1
   3165   3171     1
   3165   6598     1
   3168   3174     1
   3168   3177     1
   3168   3189     1
   3174   6599     1
   3177   6568     1
   3183   6571     1
   3186   6602     1
   3190   3215     1
   3190   3212     1
   3190   3209     1
   3191   3206     1
   3191   3200     1
   3191   6691     1
   3194   3203     1
   3194   3200     1
   3194   6660     1
   3197   3203     1
   3197   3206     1
   3197   3218     1
   3203   6661     1
   3206   6630     1
   3212   6633     1
   3215   6664     1
   3219   3244     1
   3219   3241     1
   3219   3238     1
   3220   3235     1
   3220   3229     1
   3220   6753     1
   3223   3232     1
   3223   3229     1
   3223   6722     1
   3226   3232     1
   3226   3235     1
   3226   3247     1
   3232   6723     1
   3235   6692     1
   3241   6695     1
   3244   6726     1
   3248   3273     1
   3248   3270     1
   3248   3267     1
   3249   3264     1
   3249   3258     1
   3249   6815     1
   3252   3261     1
   3252   3258     1
   3252   6784     1
   3255   3261     1
   3255   3264     1
   3255   3276     1
   3261   6785     1
   3264   6754     1
   3270   6757     1
   3273   6788     1
   3277   3302     1
   3277   3299     1
   3277   3296     1
   3278   3293     1
   3278   3287     1
   3278   6877     1
   3281   3290     1
   3281   3287     1
   3281   6846     1
   3284   3290     1
   3284   3293     1
   3284   3305     1
   3290   6847     1
   3293   6816     1
   3299   6819     1
   3302   6850     1
   3306   3331     1
   3306   3328     1
   3306   3325     1
   3307   3322     1
   3307   3316     1
   3307   6939     1
   3310   3319     1
   3310   3316     1
   3310   6908     1
   3313   3319     1
   3313   3322     1
   3313   3334     1
   3319   6909     1
   3322   6878     1
   3328   6881     1
   3331   6912     1
   3335   3360     1
   3335   3357     1
   3335   3354     1
   3336   3351     1
   3336   3345     1
   3336   7001     1
   3339   3348     1
   3339   3345     1
   3339   6970     1
   3342   3348     1
   3342   3351     1
   3342   3363     1
   3348   6971     1
   3351   6940     1
   3357   6943     1
   3360   6974     1
   3364   3389     1
   3364   3386     1
   3364   3383     1
   3365   3380     1
   3365   3374     1
   3365   7063     1
   3368   3377     1
   3368   3374     1
   3368   7032     1
   3371   3377     1
   3371   3380     1
   3371   3392     1
   3377   7033     1
   3380   7002     1
   3386   7005     1
   3389   7036     1
   3393   3418     1
   3393   3415     1
   3393   3412     1
   3394   3409     1
   3394   3403     1
   3394   7125     1
   3397   3406     1
   3397   3403     1
   3397   7094     1
   3400   3406     1
   3400   3409     1
   3400   3421     1
   3406   7095     1
   3409   7064     1
   3415   7067     1
   3418   7098     1
   3422   3447     1
   3422   3444     1
   3422   3441     1
   3423   3438     1
   3423   3432     1
   3423   7187     1
   3426   3435     1
   3426   3432     1
   3426   7156     1
   3429   3435     1
   3429   3438     1
   3429   3450     1
   3435   7157     1
   3438   7126     1
   3444   7129     1
   3447   7160     1
   3451   3476     1
   3451   3473     1
   3451   3470     1
   3452   3467     1
   3452   3461     1
   3452   7249     1
   3455   3464     1
   3455   3461     1
   3455   7218     1
   3458   3464     1
   3458   3467     1
   3458   3479     1
   3464   7219     1
   3467   7188     1
   3473   7191     1
   3476   7222     1
   3480   3505     1
   3480   3502     1
   3480   3499     1
   3481   3496     1
   3481   3490     1
   3481   7311     1
   3484   3493     1
   3484   3490     1
   3484   7280     1
   3487   3493     1
   3487   3496     1
   3487   3508     1
   3493   7281     1
   3496   7250     1
   3502   7253     1
   3505   7284     1
   3509   3534     1
   3509   3531     1
   3509   3528     1
   3510   3525     1
   3510   3519     1
   3510   7373     1
   3513   3522     1
   3513   3519     1
   3513   7342     1
   3516   3522     1
   3516   3525     1
   3516   3537     1
   3522   7343     1
   3525   7312     1
   3531   7315     1
   3534   7346     1
   3538   3563     1
   3538   3560     1
   3538   3557     1
   3539   3554     1
   3539   3548     1
   3539   7435     1
   3542   3551     1
   3542   3548     1
   3542   7404     1
   3545   3551     1
   3545   3554     1
   3545   3566     1
   3551   7405     1
   3554   7374     1
   3560   7377     1
   3563   7408     1
   3567   3592     1
   3567   3589     1
   3567   3586     1
   3568   3583     1
   3568   3577     1
   3568   7497     1
   3571   3580     1
   3571   3577     1
   3571   7466     1
   3574   3580     1
   3574   3583     1
   3574   3595     1
   3580   7467     1
   3583   7436     1
   3589   7439     1
   3592   7470     1
   3596   3621     1
   3596   3618     1
   3596   3615     1
   3597   3612     1
   3597   3606     1
   3597   7559     1
   3600   3609     1
   3600   3606     1
   3600   7528     1
   3603   3609     1
   3603   3612     1
   3603   3624     1
   3609   7529     1
   3612   7498     1
   3618   7501     1
   3621   7532     1
   3625   3650     1
   3625   3647     1
   3625   3644     1
   3626   3641     1
   3626   3635     1
   3626   7621     1
   3629   3638     1
   3629   3635     1
   3629   7590     1
   3632   3638     1
   3632   3641     1
   3632   3653     1
   3638   7591     1
   3641   7560     1
   3647   7563     1
   3650   7594     1
   3654   3663     1
   3657   3664     1
   3657   3674     1
   3660   3684     1
   3660   3667     1
   3660   3677     1
   3663   3670     1
   3663   3680     1
   3664   3677     1
   3664   3671     1
   3664   3672     1
   3667   3674     1
   3674   3681     1
   3674   3682     1
   3685   3694     1
   3688   3695     1
   3688   3705     1
   3691   3698     1
   3691   3708     1
   3691   3715     1
   3694   3701     1
   3694   3711     1
   3695   3702     1
   3695   3703     1
   3695   3708     1
   3698   3705     1
   3705   3712     1
   3705   3713     1
   3716   3725     1
   3719   3726     1
   3719   3736     1
   3722   3746     1
   3722   3729     1
   3722   3739     1
   3725   3732     1
   3725   3742     1
   3726   3739     1
   3726   3733     1
   3726   3734     1
   3729   3736     1
   3736   3743     1
   3736   3744     1
   3747   3756     1
   3750   3757     1
   3750   3767     1
   3753   3760     1
   3753   3770     1
   3753   3777     1
   3756   3763     1
   3756   3773     1
   3757   3764     1
   3757   3765     1
   3757   3770     1
   3760   3767     1
   3767   3774     1
   3767   3775     1
   3778   3787     1
   3781   3788     1
   3781   3798     1
   3784   3808     1
   3784   3791     1
   3784   3801     1
   3787   3794     1
   3787   3804     1
   3788   3801     1
   3788   3795     1
   3788   3796     1
   3791   3798     1
   3798   3805     1
   3798   3806     1
   3809   3818     1
   3812   3819     1
   3812   3829     1
   3815   3822     1
   3815   3832     1
   3815   3839     1
   3818   3825     1
   3818   3835     1
   3819   3826     1
   3819   3827     1
   3819   3832     1
   3822   3829     1
   3829   3836     1
   3829   3837     1
   3840   3849     1
   3843   3850     1
   3843   3860     1
   3846   3870     1
   3846   3853     1
   3846   3863     1
   3849   3856     1
   3849   3866     1
   3850   3863     1
   3850   3857     1
   3850   3858     1
   3853   3860     1
   3860   3867     1
   3860   3868     1
   3871   3880     1
   3874   3881     1
   3874   3891     1
   3877   3884     1
   3877   3894     1
   3877   3901     1
   3880   3887     1
   3880   3897     1
   3881   3888     1
   3881   3889     1
   3881   3894     1
   3884   3891     1
   3891   3898     1
   3891   3899     1
   3902   3911     1
   3905   3912     1
   3905   3922     1
   3908   3932     1
   3908   3915     1
   3908   3925     1
   3911   3918     1
   3911   3928     1
   3912   3925     1
   3912   3919     1
   3912   3920     1
   3915   3922     1
   3922   3929     1
   3922   3930     1
   3933   3942     1
   3936   3943     1
   3936   3953     1
   3939   3946     1
   3939   3956     1
   3939   3963     1
   3942   3949     1
   3942   3959     1
   3943   3950     1
   3943   3951     1
   3943   3956     1
   3946   3953     1
   3953   3960     1
   3953   3961     1
   3964   3973     1
   3967   3974     1
   3967   3984     1
   3970   3994     1
   3970   3977     1
   3970   3987     1
   3973   3980     1
   3973   3990     1
   3974   3987     1
   3974   3981     1
   3974   3982     1
   3977   3984     1
   3984   3991     1
   3984   3992     1
   3995   4004     1
   3998   4005     1
   3998   4015     1
   4001   4008     1
   4001   4018     1
   4001   4025     1
   4004   4011     1
   4004   4021     1
   4005   4012     1
   4005   4013     1
   4005   4018     1
   4008   4015     1
   4015   4022     1
   4015   4023     1
   4026   4035     1
   4029   4036     1
   4029   4046     1
   4032   4056     1
   4032   4039     1
   4032   4049     1
   4035   4042     1
   4035   4052     1
   4036   4049     1
   4036   4043     1
   4036   4044     1
   4039   4046     1
   4046   4053     1
   4046   4054     1
   4057   4066     1
   4060   4067     1
   4060   4077     1
   4063   4070     1
   4063   4080     1
   4063   4087     1
   4066   4073     1
   4066   4083     1
   4067   4074     1
   4067   4075     1
   4067   4080     1
   4070   4077     1
   4077   4084     1
   4077   4085     1
   4088   4097     1
   4091   4098     1
   4091   4108     1
   4094   4118     1
   4094   4101     1
   4094   4111     1
   4097   4104     1
   4097   4114     1
   4098   4111     1
   4098   4105     1
   4098   4106     1
   4101   4108     1
   4108   4115     1
   4108   4116     1
   4119   4128     1
   4122   4129     1
   4122   4139     1
   4125   4132     1
   4125   4142     1
   4125   4149     1
   4128   4135     1
   4128   4145     1
   4129   4136     1
   4129   4137     1
   4129   4142     1
   4132   4139     1
   4139   4146     1
   4139   4147     1
   4150   4159     1
   4153   4160     1
   4153   4170     1
   4156   4180     1
   4156   4163     1
   4156   4173     1
   4159   4166     1
   4159   4176     1
   4160   4173     1
   4160   4167     1
   4160   4168     1
   4163   4170     1
   4170   4177     1
   4170   4178     1
   4181   4190     1
   4184   4191     1
   4184   4201     1
   4187   4194     1
   4187   4204     1
   4187   4211     1
   4190   4197     1
   4190   4207     1
   4191   4198     1
   4191   4199     1
   4191   4204     1
   4194   4201     1
   4201   4208     1
   4201   4209     1
   4212   4221     1
   4215   4222     1
   4215   4232     1
   4218   4242     1
   4218   4225     1
   4218   4235     1
   4221   4228     1
   4221   4238     1
   4222   4235     1
   4222   4229     1
   4222   4230     1
   4225   4232     1
   4232   4239     1
   4232   4240     1
   4243   4252     1
   4246   4253     1
   4246   4263     1
   4249   4256     1
   4249   4266     1
   4249   4273     1
   4252   4259     1
   4252   4269     1
   4253   4260     1
   4253   4261     1
   4253   4266     1
   4256   4263     1
   4263   4270     1
   4263   4271     1
   4274   4283     1
   4277   4284     1
   4277   4294     1
   4280   4304     1
   4280   4287     1
   4280   4297     1
   4283   4290     1
   4283   4300     1
   4284   4297     1
   4284   4291     1
   4284   4292     1
   4287   4294     1
   4294   4301     1
   4294   4302     1
   4305   4314     1
   4308   4315     1
   4308   4325     1
   4311   4318     1
   4311   4328     1
   4311   4335     1
   4314   4321     1
   4314   4331     1
   4315   4322     1
   4315   4323     1
   4315   4328     1
   4318   4325     1
   4325   4332     1
   4325   4333     1
   4336   4345     1
   4339   4346     1
   4339   4356     1
   4342   4366     1
   4342   4349     1
   4342   4359     1
   4345   4352     1
   4345   4362     1
   4346   4359     1
   4346   4353     1
   4346   4354     1
   4349   4356     1
   4356   4363     1
   4356   4364     1
   4367   4376     1
   4370   4377     1
   4370   4387     1
   4373   4380     1
   4373   4390     1
   4373   4397     1
   4376   4383     1
   4376   4393     1
   4377   4384     1
   4377   4385     1
   4377   4390     1
   4380   4387     1
   4387   4394     1
   4387   4395     1
   4398   4407     1
   4401   4408     1
   4401   4418     1
   4404   4428     1
   4404   4411     1
   4404   4421     1
   4407   4414     1
   4407   4424     1
   4408   4421     1
   4408   4415     1
   4408   4416     1
   4411   4418     1
   4418   4425     1
   4418   4426     1
   4429   4438     1
   4432   4439     1
   4432   4449     1
   4435   4442     1
   4435   4452     1
   4435   4459     1
   4438   4445     1
   4438   4455     1
   4439   4446     1
   4439   4447     1
   4439   4452     1
   4442   4449     1
   4449   4456     1
   4449   4457     1
   4460   4469     1
   4463   4470     1
   4463   4480     1
   4466   4490     1
   4466   4473     1
   4466   4483     1
   4469   4476     1
   4469   4486     1
   4470   4483     1
   4470   4477     1
   4470   4478     1
   4473   4480     1
   4480   4487     1
   4480   4488     1
   4491   4500     1
   4494   4501     1
   4494   4511     1
   4497   4504     1
   4497   4514     1
   4497   4521     1
   4500   4507     1
   4500   4517     1
   4501   4508     1
   4501   4509     1
   4501   4514     1
   4504   4511     1
   4511   4518     1
   4511   4519     1
   4522   4531     1
   4525   4532     1
   4525   4542     1
   4528   4552     1
   4528   4535     1
   4528   4545     1
   4531   4538     1
   4531   4548     1
   4532   4545     1
   4532   4539     1
   4532   4540     1
   4535   4542     1
   4542   4549     1
   4542   4550     1
   4553   4562     1
   4556   4563     1
   4556   4573     1
   4559   4566     1
   4559   4576     1
   4559   4583     1
   4562   4569     1
   4562   4579     1
   4563   4570     1
   4563   4571     1
   4563   4576     1
   4566   4573     1
   4573   4580     1
   4573   4581     1
   4584   4593     1
   4587   4594     1
   4587   4604     1
   4590   4614     1
   4590   4597     1
   4590   4607     1
   4593   4600     1
   4593   4610     1
   4594   4607     1
   4594   4601     1
   4594   4602     1
   4597   4604     1
   4604   4611     1
   4604   4612     1
   4615   4624     1
   4618   4625     1
   4618   4635     1
   4621   4628     1
   4621   4638     1
   4621   4645     1
   4624   4631     1
   4624   4641     1
   4625   4632     1
   4625   4633     1
   4625   4638     1
   4628   4635     1
   4635   4642     1
   4635   4643     1
   4646   4655     1
   4649   4656     1
   4649   4666     1
   4652   4676     1
   4652   4659     1
   4652   4669     1
   4655   4662     1
   4655   4672     1
   4656   4669     1
   4656   4663     1
   4656   4664     1
   4659   4666     1
   4666   4673     1
   4666   4674     1
   4677   4686     1
   4680   4687     1
   4680   4697     1
   4683   4690     1
   4683   4700     1
   4683   4707     1
   4686   4693     1
   4686   4703     1
   4687   4694     1
   4687   4695     1
   4687   4700     1
   4690   4697     1
   4697   4704     1
   4697   4705     1
   4708   4717     1
   4711   4718     1
   4711   4728     1
   4714   4738     1
   4714   4721     1
   4714   4731     1
   4717   4724     1
   4717   4734     1
   4718   4731     1
   4718   4725     1
   4718   4726     1
   4721   4728     1
   4728   4735     1
   4728   4736     1
   4739   4748     1
   4742   4749     1
   4742   4759     1
   4745   4752     1
   4745   4762     1
   4745   4769     1
   4748   4755     1
   4748   4765     1
   4749   4756     1
   4749   4757     1
   4749   4762     1
   4752   4759     1
   4759   4766     1
   4759   4767     1
   4770   4779     1
   4773   4780     1
   4773   4790     1
   4776   4800     1
   4776   4783     1
   4776   4793     1
   4779   4786     1
   4779   4796     1
   4780   4793     1
   4780   4787     1
   4780   4788     1
   4783   4790     1
   4790   4797     1
   4790   4798     1
   4801   4810     1
   4804   4811     1
   4804   4821     1
   4807   4814     1
   4807   4824     1
   4807   4831     1
   4810   4817     1
   4810   4827     1
   4811   4818     1
   4811   4819     1
   4811   4824     1
   4814   4821     1
   4821   4828     1
   4821   4829     1
   4832   4841     1
   4835   4842     1
   4835   4852     1
   4838   4862     1
   4838   4845     1
   4838   4855     1
   4841   4848     1
   4841   4858     1
   4842   4855     1
   4842   4849     1
   4842   4850     1
   4845   4852     1
   4852   4859     1
   4852   4860     1
   4863   4872     1
   4866   4873     1
   4866   4883     1
   4869   4876     1
   4869   4886     1
   4869   4893     1
   4872   4879     1
   4872   4889     1
   4873   4880     1
   4873   4881     1
   4873   4886     1
   4876   4883     1
   4883   4890     1
   4883   4891     1
   4894   4903     1
   4897   4904     1
   4897   4914     1
   4900   4924     1
   4900   4907     1
   4900   4917     1
   4903   4910     1
   4903   4920     1
   4904   4917     1
   4904   4911     1
   4904   4912     1
   4907   4914     1
   4914   4921     1
   4914   4922     1
   4925   4934     1
   4928   4935     1
   4928   4945     1
   4931   4938     1
   4931   4948     1
   4931   4955     1
   4934   4941     1
   4934   4951     1
   4935   4942     1
   4935   4943     1
   4935   4948     1
   4938   4945     1
   4945   4952     1
   4945   4953     1
   4956   4965     1
   4959   4966     1
   4959   4976     1
   4962   4986     1
   4962   4969     1
   4962   4979     1
   4965   4972     1
   4965   4982     1
   4966   4979     1
   4966   4973     1
   4966   4974     1
   4969   4976     1
   4976   4983     1
   4976   4984     1
   4987   4996     1
   4990   4997     1
   4990   5007     1
   4993   5000     1
   4993   5010     1
   4993   5017     1
   4996   5003     1
   4996   5013     1
   4997   5004     1
   4997   5005     1
   4997   5010     1
   5000   5007     1
   5007   5014     1
   5007   5015     1
   5018   5027     1
   5021   5028     1
   5021   5038     1
   5024   5048     1
   5024   5031     1
   5024   5041     1
   5027   5034     1
   5027   5044     1
   5028   5041     1
   5028   5035     1
   5028   5036     1
   5031   5038     1
   5038   5045     1
   5038   5046     1
   5049   5058     1
   5052   5059     1
   5052   5069     1
   5055   5062     1
   5055   5072     1
   5055   5079     1
   5058   5065     1
   5058   5075     1
   5059   5066     1
   5059   5067     1
   5059   5072     1
   5062   5069     1
   5069   5076     1
   5069   5077     1
   5080   5089     1
   5083   5090     1
   5083   5100     1
   5086   5110     1
   5086   5093     1
   5086   5103     1
   5089   5096     1
   5089   5106     1
   5090   5103     1
   5090   5097     1
   5090   5098     1
   5093   5100     1
   5100   5107     1
   5100   5108     1
   5111   5120     1
   5114   5121     1
   5114   5131     1
   5117   5124     1
   5117   5134     1
   5117   5141     1
   5120   5127     1
   5120   5137     1
   5121   5128     1
   5121   5129     1
   5121   5134     1
   5124   5131     1
   5131   5138     1
   5131   5139     1
   5142   5151     1
   5145   5152     1
   5145   5162     1
   5148   5172     1
   5148   5155     1
   5148   5165     1
   5151   5158     1
   5151   5168     1
   5152   5165     1
   5152   5159     1
   5152   5160     1
   5155   5162     1
   5162   5169     1
   5162   5170     1
   5173   5182     1
   5176   5183     1
   5176   5193     1
   5179   5186     1
   5179   5196     1
   5179   5203     1
   5182   5189     1
   5182   5199     1
   5183   5190     1
   5183   5191     1
   5183   5196     1
   5186   5193     1
   5193   5200     1
   5193   5201     1
   5204   5213     1
   5207   5214     1
   5207   5224     1
   5210   5234     1
   5210   5217     1
   5210   5227     1
   5213   5220     1
   5213   5230     1
   5214   5227     1
   5214   5221     1
   5214   5222     1
   5217   5224     1
   5224   5231     1
   5224   5232     1
   5235   5244     1
   5238   5245     1
   5238   5255     1
   5241   5248     1
   5241   5258     1
   5241   5265     1
   5244   5251     1
   5244   5261     1
   5245   5252     1
   5245   5253     1
   5245   5258     1
   5248   5255     1
   5255   5262     1
   5255   5263     1
   5266   5275     1
   5269   5276     1
   5269   5286     1
   5272   5296     1
   5272   5279     1
   5272   5289     1
   5275   5282     1
   5275   5292     1
   5276   5289     1
   5276   5283     1
   5276   5284     1
   5279   5286     1
   5286   5293     1
   5286   5294     1
   5297   5306     1
   5300   5307     1
   5300   5317     1
   5303   5310     1
   5303   5320     1
   5303   5327     1
   5306   5313     1
   5306   5323     1
   5307   5314     1
   5307   5315     1
   5307   5320     1
   5310   5317     1
   5317   5324     1
   5317   5325     1
   5328   5337     1
   5331   5338     1
   5331   5348     1
   5334   5358     1
   5334   5341     1
   5334   5351     1
   5337   5344     1
   5337   5354     1
   5338   5351     1
   5338   5345     1
   5338   5346     1
   5341   5348     1
   5348   5355     1
   5348   5356     1
   5359   5368     1
   5362   5369     1
   5362   5379     1
   5365   5372     1
   5365   5382     1
   5365   5389     1
   5368   5375     1
   5368   5385     1
   5369   5376     1
   5369   5377     1
   5369   5382     1
   5372   5379     1
   5379   5386     1
   5379   5387     1
   5390   5399     1
   5393   5400     1
   5393   5410     1
   5396   5420     1
   5396   5403     1
   5396   5413     1
   5399   5406     1
   5399   5416     1
   5400   5413     1
   5400   5407     1
   5400   5408     1
   5403   5410     1
   5410   5417     1
   5410   5418     1
   5421   5430     1
   5424   5431     1
   5424   5441     1
   5427   5434     1
   5427   5444     1
   5427   5451     1
   5430   5437     1
   5430   5447     1
   5431   5438     1
   5431   5439     1
   5431   5444     1
   5434   5441     1
   5441   5448     1
   5441   5449     1
   5452   5461     1
   5455   5462     1
   5455   5472     1
   5458   5482     1
   5458   5465     1
   5458   5475     1
   5461   5468     1
   5461   5478     1
   5462   5475     1
   5462   5469     1
   5462   5470     1
   5465   5472     1
   5472   5479     1
   5472   5480     1
   5483   5492     1
   5486   5493     1
   5486   5503     1
   5489   5496     1
   5489   5506     1
   5489   5513     1
   5492   5499     1
   5492   5509     1
   5493   5500     1
   5493   5501     1
   5493   5506     1
   5496   5503     1
   5503   5510     1
   5503   5511     1
   5514   5523     1
   5517   5524     1
   5517   5534     1
   5520   5544     1
   5520   5527     1
   5520   5537     1
   5523   5530     1
   5523   5540     1
   5524   5537     1
   5524   5531     1
   5524   5532     1
   5527   5534     1
   5534   5541     1
   5534   5542     1
   5545   5554     1
   5548   5555     1
   5548   5565     1
   5551   5558     1
   5551   5568     1
   5551   5575     1
   5554   5561     1
   5554   5571     1
   5555   5562     1
   5555   5563     1
   5555   5568     1
   5558   5565     1
   5565   5572     1
   5565   5573     1
   5576   5585     1
   5579   5586     1
   5579   5596     1
   5582   5606     1
   5582   5589     1
   5582   5599     1
   5585   5592     1
   5585   5602     1
   5586   5599     1
   5586   5593     1
   5586   5594     1
   5589   5596     1
   5596   5603     1
   5596   5604     1
   5607   5616     1
   5610   5617     1
   5610   5627     1
   5613   5620     1
   5613   5630     1
   5613   5637     1
   5616   5623     1
   5616   5633     1
   5617   5624     1
   5617   5625     1
   5617   5630     1
   5620   5627     1
   5627   5634     1
   5627   5635     1
   5638   5647     1
   5641   5648     1
   5641   5658     1
   5644   5668     1
   5644   5651     1
   5644   5661     1
   5647   5654     1
   5647   5664     1
   5648   5661     1
   5648   5655     1
   5648   5656     1
   5651   5658     1
   5658   5665     1
   5658   5666     1
   5669   5678     1
   5672   5679     1
   5672   5689     1
   5675   5682     1
   5675   5692     1
   5675   5699     1
   5678   5685     1
   5678   5695     1
   5679   5686     1
   5679   5687     1
   5679   5692     1
   5682   5689     1
   5689   5696     1
   5689   5697     1
   5700   5709     1
   5703   5710     1
   5703   5720     1
   5706   5730     1
   5706   5713     1
   5706   5723     1
   5709   5716     1
   5709   5726     1
   5710   5723     1
   5710   5717     1
   5710   5718     1
   5713   5720     1
   5720   5727     1
   5720   5728     1
   5731   5740     1
   5734   5741     1
   5734   5751     1
   5737   5744     1
   5737   5754     1
   5737   5761     1
   5740   5747     1
   5740   5757     1
   5741   5748     1
   5741   5749     1
   5741   5754     1
   5744   5751     1
   5751   5758     1
   5751   5759     1
   5762   5771     1
   5765   5772     1
   5765   5782     1
   5768   5792     1
   5768   5775     1
   5768   5785     1
   5771   5778     1
   5771   5788     1
   5772   5785     1
   5772   5779     1
   5772   5780     1
   5775   5782     1
   5782   5789     1
   5782   5790     1
   5793   5802     1
   5796   5803     1
   5796   5813     1
   5799   5806     1
   5799   5816     1
   5799   5823     1
   5802   5809     1
   5802   5819     1
   5803   5810     1
   5803   5811     1
   5803   5816     1
   5806   5813     1
   5813   5820     1
   5813   5821     1
   5824   5833     1
   5827   5834     1
   5827   5844     1
   5830   5854     1
   5830   5837     1
   5830   5847     1
   5833   5840     1
   5833   5850     1
   5834   5847     1
   5834   5841     1
   5834   5842     1
   5837   5844     1
   5844   5851     1
   5844   5852     1
   5855   5864     1
   5858   5865     1
   5858   5875     1
   5861   5868     1
   5861   5878     1
   5861   5885     1
   5864   5871     1
   5864   5881     1
   5865   5872     1
   5865   5873     1
   5865   5878     1
   5868   5875     1
   5875   5882     1
   5875   5883     1
   5886   5895     1
   5889   5896     1
   5889   5906     1
   5892   5916     1
   5892   5899     1
   5892   5909     1
   5895   5902     1
   5895   5912     1
   5896   5909     1
   5896   5903     1
   5896   5904     1
   5899   5906     1
   5906   5913     1
   5906   5914     1
   5917   5926     1
   5920   5927     1
   5920   5937     1
   5923   5930     1
   5923   5940     1
   5923   5947     1
   5926   5933     1
   5926   5943     1
   5927   5934     1
   5927   5935     1
   5927   5940     1
   5930   5937     1
   5937   5944     1
   5937   5945     1
   5948   5957     1
   5951   5958     1
   5951   5968     1
   5954   5978     1
   5954   5961     1
   5954   5971     1
   5957   5964     1
   5957   5974     1
   5958   5971     1
   5958   5965     1
   5958   5966     1
   5961   5968     1
   5968   5975     1
   5968   5976     1
   5979   5988     1
   5982   5989     1
   5982   5999     1
   5985   5992     1
   5985   6002     1
   5985   6009     1
   5988   5995     1
   5988   6005     1
   5989   5996     1
   5989   5997     1
   5989   6002     1
   5992   5999     1
   5999   6006     1
   5999   6007     1
   6010   6019     1
   6013   6020     1
   6013   6030     1
   6016   6040     1
   6016   6023     1
   6016   6033     1
   6019   6026     1
   6019   6036     1
   6020   6033     1
   6020   6027     1
   6020   6028     1
   6023   6030     1
   6030   6037     1
   6030   6038     1
   6041   6050     1
   6044   6051     1
   6044   6061     1
   6047   6054     1
   6047   6064     1
   6047   6071     1
   6050   6057     1
   6050   6067     1
   6051   6058     1
   6051   6059     1
   6051   6064     1
   6054   6061     1
   6061   6068     1
   6061   6069     1
   6072   6081     1
   6075   6082     1
   6075   6092     1
   6078   6102     1
   6078   6085     1
   6078   6095     1
   6081   6088     1
   6081   6098     1
   6082   6095     1
   6082   6089     1
   6082   6090     1
   6085   6092     1
   6092   6099     1
   6092   6100     1
   6103   6112     1
   6106   6113     1
   6106   6123     1
   6109   6116     1
   6109   6126     1
   6109   6133     1
   6112   6119     1
   6112   6129     1
   6113   6120     1
   6113   6121     1
   6113   6126     1
   6116   6123     1
   6123   6130     1
   6123   6131     1
   6134   6143     1
   6137   6144     1
   6137   6154     1
   6140   6164     1
   6140   6147     1
   6140   6157     1
   6143   6150     1
   6143   6160     1
   6144   6157     1
   6144   6151     1
   6144   6152     1
   6147   6154     1
   6154   6161     1
   6154   6162     1
   6165   6174     1
   6168   6175     1
   6168   6185     1
   6171   6178     1
   6171   6188     1
   6171   6195     1
   6174   6181     1
   6174   6191     1
   6175   6182     1
   6175   6183     1
   6175   6188     1
   6178   6185     1
   6185   6192     1
   6185   6193     1
   6196   6205     1
   6199   6206     1
   6199   6216     1
   6202   6226     1
   6202   6209     1
   6202   6219     1
   6205   6212     1
   6205   6222     1
   6206   6219     1
   6206   6213     1
   6206   6214     1
   6209   6216     1
   6216   6223     1
   6216   6224     1
   6227   6236     1
   6230   6237     1
   6230   6247     1
   6233   6240     1
   6233   6250     1
   6233   6257     1
   6236   6243     1
   6236   6253     1
   6237   6244     1
   6237   6245     1
   6237   6250     1
   6240   6247     1
   6247   6254     1
   6247   6255     1
   6258   6267     1
   6261   6268     1
   6261   6278     1
   6264   6288     1
   6264   6271     1
   6264   6281     1
   6267   6274     1
   6267   6284     1
   6268   6281     1
   6268   6275     1
   6268   6276     1
   6271   6278     1
   6278   6285     1
   6278   6286     1
   6289   6298     1
   6292   6299     1
   6292   6309     1
   6295   6302     1
   6295   6312     1
   6295   6319     1
   6298   6305     1
   6298   6315     1
   6299   6306     1
   6299   6307     1
   6299   6312     1
   6302   6309     1
   6309   6316     1
   6309   6317     1
   6320   6329     1
   6323   6330     1
   6323   6340     1
   6326   6350     1
   6326   6333     1
   6326   6343     1
   6329   6336     1
   6329   6346     1
   6330   6343     1
   6330   6337     1
   6330   6338     1
   6333   6340     1
   6340   6347     1
   6340   6348     1
   6351   6360     1
   6354   6361     1
   6354   6371     1
   6357   6364     1
   6357   6374     1
   6357   6381     1
   6360   6367     1
   6360   6377     1
   6361   6368     1
   6361   6369     1
   6361   6374     1
   6364   6371     1
   6371   6378     1
   6371   6379     1
   6382   6391     1
   6385   6392     1
   6385   6402     1
   6388   6412     1
   6388   6395     1
   6388   6405     1
   6391   6398     1
   6391   6408     1
   6392   6405     1
   6392   6399     1
   6392   6400     1
   6395   6402     1
   6402   6409     1
   6402   6410     1
   6413   6422     1
   6416   6423     1
   6416   6433     1
   6419   6426     1
   6419   6436     1
   6419   6443     1
   6422   6429     1
   6422   6439     1
   6423   6430     1
   6423   6431     1
   6423   6436     1
   6426   6433     1
   6433   6440     1
   6433   6441     1
   6444   6453     1
   6447   6454     1
   6447   6464     1
   6450   6474     1
   6450   6457     1
   6450   6467     1
   6453   6460     1
   6453   6470     1
   6454   6467     1
   6454   6461     1
   6454   6462     1
   6457   6464     1
   6464   6471     1
   6464   6472     1
   6475   6484     1
   6478   6485     1
   6478   6495     1
   6481   6488     1
   6481   6498     1
   6481   6505     1
   6484   6491     1
   6484   6501     1
   6485   6492     1
   6485   6493     1
   6485   6498     1
   6488   6495     1
   6495   6502     1
   6495   6503     1
   6506   6515     1
   6509   6516     1
   6509   6526     1
   6512   6536     1
   6512   6519     1
   6512   6529     1
   6515   6522     1
   6515   6532     1
   6516   6529     1
   6516   6523     1
   6516   6524     1
   6519   6526     1
   6526   6533     1
   6526   6534     1
   6537   6546     1
   6540   6547     1
   6540   6557     1
   6543   6550     1
   6543   6560     1
   6543   6567     1
   6546   6553     1
   6546   6563     1
   6547   6554     1
   6547   6555     1
   6547   6560     1
   6550   6557     1
   6557   6564     1
   6557   6565     1
   6568   6577     1
   6571   6578     1
   6571   6588     1
   6574   6598     1
   6574   6581     1
   6574   6591     1
   6577   6584     1
   6577   6594     1
   6578   6591     1
   6578   6585     1
   6578   6586     1
   6581   6588     1
   6588   6595     1
   6588   6596     1
   6599   6608     1
   6602   6609     1
   6602   6619     1
   6605   6612     1
   6605   6622     1
   6605   6629     1
   6608   6615     1
   6608   6625     1
   6609   6616     1
   6609   6617     1
   6609   6622     1
   6612   6619     1
   6619   6626     1
   6619   6627     1
   6630   6639     1
   6633   6640     1
   6633   6650     1
   6636   6660     1
   6636   6643     1
   6636   6653     1
   6639   6646     1
   6639   6656     1
   6640   6653     1
   6640   6647     1
   6640   6648     1
   6643   6650     1
   6650   6657     1
   6650   6658     1
   6661   6670     1
   6664   6671     1
   6664   6681     1
   6667   6674     1
   6667   6684     1
   6667   6691     1
   6670   6677     1
   6670   6687     1
   6671   6678     1
   6671   6679     1
   6671   6684     1
   6674   6681     1
   6681   6688     1
   6681   6689     1
   6692   6701     1
   6695   6702     1
   6695   6712     1
   6698   6722     1
   6698   6705     1
   6698   6715     1
   6701   6708     1
   6701   6718     1
   6702   6715     1
   6702   6709     1
   6702   6710     1
   6705   6712     1
   6712   6719     1
   6712   6720     1
   6723   6732     1
   6726   6733     1
   6726   6743     1
   6729   6736     1
   6729   6746     1
   6729   6753     1
   6732   6739     1
   6732   6749     1
   6733   6740     1
   6733   6741     1
   6733   6746     1
   6736   6743     1
   6743   6750     1
   6743   6751     1
   6754   6763     1
   6757   6764     1
   6757   6774     1
   6760   6784     1
   6760   6767     1
   6760   6777     1
   6763   6770     1
   6763   6780     1
   6764   6777     1
   6764   6771     1
   6764   6772     1
   6767   6774     1
   6774   6781     1
   6774   6782     1
   6785   6794     1
   6788   6795     1
   6788   6805     1
   6791   6798     1
   6791   6808     1
   6791   6815     1
   6794   6801     1
   6794   6811     1
   6795   6802     1
   6795   6803     1
   6795   6808     1
   6798   6805     1
   6805   6812     1
   6805   6813     1
   6816   6825     1
   6819   6826     1
   6819   6836     1
   6822   6846     1
   6822   6829     1
   6822   6839     1
   6825   6832     1
   6825   6842     1
   6826   6839     1
   6826   6833     1
   6826   6834     1
   6829   6836     1
   6836   6843     1
   6836   6844     1
   6847   6856     1
   6850   6857     1
   6850   6867     1
   6853   6860     1
   6853   6870     1
   6853   6877     1
   6856   6863     1
   6856   6873     1
   6857   6864     1
   6857   6865     1
   6857   6870     1
   6860   6867     1
   6867   6874     1
   6867   6875     1
   6878   6887     1
   6881   6888     1
   6881   6898     1
   6884   6908     1
   6884   6891     1
   6884   6901     1
   6887   6894     1
   6887   6904     1
   6888   6901     1
   6888   6895     1
   6888   6896     1
   6891   6898     1
   6898   6905     1
   6898   6906     1
   6909   6918     1
   6912   6919     1
   6912   6929     1
   6915   6922     1
   6915   6932     1
   6915   6939     1
   6918   6925     1
   6918   6935     1
   6919   6926     1
   6919   6927     1
   6919   6932     1
   6922   6929     1
   6929   6936     1
   6929   6937     1
   6940   6949     1
   6943   6950     1
   6943   6960     1
   6946   6970     1
   6946   6953     1
   6946   6963     1
   6949   6956     1
   6949   6966     1
   6950   6963     1
   6950   6957     1
   6950   6958     1
   6953   6960     1
   6960   6967     1
   6960   6968     1
   6971   6980     1
   6974   6981     1
   6974   6991     1
   6977   6984     1
   6977   6994     1
   6977   7001     1
   6980   6987     1
   6980   6997     1
   6981   6988     1
   6981   6989     1
   6981   6994     1
   6984   6991     1
   6991   6998     1
   6991   6999     1
   7002   7011     1
   7005   7012     1
   7005   7022     1
   7008   7032     1
   7008   7015     1
   7008   7025     1
   7011   7018     1
   7011   7028     1
   7012   7025     1
   7012   7019     1
   7012   7020     1
   7015   7022     1
   7022   7029     1
   7022   7030     1
   7033   7042     1
   7036   7043     1
   7036   7053     1
   7039   7046     1
   7039   7056     1
   7039   7063     1
   7042   7049     1
   7042   7059     1
   7043   7050     1
   7043   7051     1
   7043   7056     1
   7046   7053     1
   7053   7060     1
   7053   7061     1
   7064   7073     1
   7067   7074     1
   7067   7084     1
   7070   7094     1
   7070   7077     1
   7070   7087     1
   7073   7080     1
   7073   7090     1
   7074   7087     1
   7074   7081     1
   7074   7082     1
   7077   7084     1
   7084   7091     1
   7084   7092     1
   7095   7104     1
   7098   7105     1
   7098   7115     1
   7101   7108     1
   7101   7118     1
   7101   7125     1
   7104   7111     1
   7104   7121     1
   7105   7112     1
   7105   7113     1
   7105   7118     1
   7108   7115     1
   7115   7122     1
   7115   7123     1
   7126   7135     1
   7129   7136     1
   7129   7146     1
   7132   7156     1
   7132   7139     1
   7132   7149     1
   7135   7142     1
   7135   7152     1
   7136   7149     1
   7136   7143     1
   7136   7144     1
   7139   7146     1
   7146   7153     1
   7146   7154     1
   7157   7166     1
   7160   7167     1
   7160   7177     1
   7163   7170     1
   7163   7180     1
   7163   7187     1
   7166   7173     1
   7166   7183     1
   7167   7174     1
   7167   7175     1
   7167   7180     1
   7170   7177     1
   7177   7184     1
   7177   7185     1
   7188   7197     1
   7191   7198     1
   7191   7208     1
   7194   7218     1
   7194   7201     1
   7194   7211     1
   7197   7204     1
   7197   7214     1
   7198   7211     1
   7198   7205     1
   7198   7206     1
   7201   7208     1
   7208   7215     1
   7208   7216     1
   7219   7228     1
   7222   7229     1
   7222   7239     1
   7225   7232     1
   7225   7242     1
   7225   7249     1
   7228   7235     1
   7228   7245     1
   7229   7236     1
   7229   7237     1
   7229   7242     1
   7232   7239     1
   7239   7246     1
   7239   7247     1
   7250   7259     1
   7253   7260     1
   7253   7270     1
   7256   7280     1
   7256   7263     1
   7256   7273     1
   7259   7266     1
   7259   7276     1
   7260   7273     1
   7260   7267     1
   7260   7268     1
   7263   7270     1
   7270   7277     1
   7270   7278     1
   7281   7290     1
   7284   7291     1
   7284   7301     1
   7287   7294     1
   7287   7304     1
   7287   7311     1
   7290   7297     1
   7290   7307     1
   7291   7298     1
   7291   7299     1
   7291   7304     1
   7294   7301     1
   7301   7308     1
   7301   7309     1
   7312   7321     1
   7315   7322     1
   7315   7332     1
   7318   7342     1
   7318   7325     1
   7318   7335     1
   7321   7328     1
   7321   7338     1
   7322   7335     1
   7322   7329     1
   7322   7330     1
   7325   7332     1
   7332   7339     1
   7332   7340     1
   7343   7352     1
   7346   7353     1
   7346   7363     1
   7349   7356     1
   7349   7366     1
   7349   7373     1
   7352   7359     1
   7352   7369     1
   7353   7360     1
   7353   7361     1
   7353   7366     1
   7356   7363     1
   7363   7370     1
   7363   7371     1
   7374   7383     1
   7377   7384     1
   7377   7394     1
   7380   7404     1
   7380   7387     1
   7380   7397     1
   7383   7390     1
   7383   7400     1
   7384   7397     1
   7384   7391     1
   7384   7392     1
   7387   7394     1
   7394   7401     1
   7394   7402     1
   7405   7414     1
   7408   7415     1
   7408   7425     1
   7411   7418     1
   7411   7428     1
   7411   7435     1
   7414   7421     1
   7414   7431     1
   7415   7422     1
   7415   7423     1
   7415   7428     1
   7418   7425     1
   7425   7432     1
   7425   7433     1
   7436   7445     1
   7439   7446     1
   7439   7456     1
   7442   7466     1
   7442   7449     1
   7442   7459     1
   7445   7452     1
   7445   7462     1
   7446   7459     1
   7446   7453     1
   7446   7454     1
   7449   7456     1
   7456   7463     1
   7456   7464     1
   7467   7476     1
   7470   7477     1
   7470   7487     1
   7473   7480     1
   7473   7490     1
   7473   7497     1
   7476   7483     1
   7476   7493     1
   7477   7484     1
   7477   7485     1
   7477   7490     1
   7480   7487     1
   7487   7494     1
   7487   7495     1
   7498   7507     1
   7501   7508     1
   7501   7518     1
   7504   7528     1
   7504   7511     1
   7504   7521     1
   7507   7514     1
   7507   7524     1
   7508   7521     1
   7508   7515     1
   7508   7516     1
   7511   7518     1
   7518   7525     1
   7518   7526     1
   7529   7538     1
   7532   7539     1
   7532   7549     1
   7535   7542     1
   7535   7552     1
   7535   7559     1
   7538   7545     1
   7538   7555     1
   7539   7546     1
   7539   7547     1
   7539   7552     1
   7542   7549     1
   7549   7556     1
   7549   7557     1
   7560   7569     1
   7563   7570     1
   7563   7580     1
   7566   7590     1
   7566   7573     1
   7566   7583     1
   7569   7576     1
   7569   7586     1
   7570   7583     1
   7570   7577     1
   7570   7578     1
   7573   7580     1
   7580   7587     1
   7580   7588     1
   7591   7600     1
   7594   7601     1
   7594   7611     1
   7597   7604     1
   7597   7614     1
   7597   7621     1
   7600   7607     1
   7600   7617     1
   7601   7608     1
   7601   7609     1
   7601   7614     1
   7604   7611     1
   7611   7618     1
   7611   7619     1
      1      9     1
      1     10     1
      1     12     1
      1     13     1
      2      6     1
      2      7     1
      2     15     1
      2     16     1
      5      3     1
      3     14     1
      3      9     1
      3     10     1
      5      4     1
      4     14     1
      4      9     1
      4     10     1
      5     18     1
      5     19     1
      6     17     1
      6     12     1
      6     13     1
      7     17     1
      7     12     1
      7     13     1
      9     20     1
      9     15     1
      9     16     1
     10     20     1
     10     15     1
     10     16     1
     12     21     1
     12     18     1
     12     19     1
     13     21     1
     13     18     1
     13     19     1
     14     29     1
     14     30     1
     14     32     1
     14     33     1
     15     28     1
     15     31     1
     16     28     1
     16     31     1
     17     23     1
     17     24     1
     17     26     1
     17     27     1
     18     22     1
     18     25     1
     19     22     1
     19     25     1
     20     41     1
     20     42     1
     20     44     1
     20     45     1
     21     35     1
     21     36     1
     21     38     1
     21     39     1
     22     26     1
     22     27     1
     22     56     1
     22     57     1
     23     25     1
     23     55     1
     23     35     1
     23     36     1
     24     25     1
     24     55     1
     24     35     1
     24     36     1
     25     53     1
     25     54     1
     26     52     1
     26     38     1
     26     39     1
     27     52     1
     27     38     1
     27     39     1
     28     32     1
     28     33     1
     28     50     1
     28     51     1
     29     31     1
     29     49     1
     29     41     1
     29     42     1
     30     31     1
     30     49     1
     30     41     1
     30     42     1
     31     47     1
     31     48     1
     32     46     1
     32     44     1
     32     45     1
     33     46     1
     33     44     1
     33     45     1
     35    173     1
     35     56     1
     35     57     1
     36    173     1
     36     56     1
     36     57     1
     38    144     1
     38     53     1
     38     54     1
     39    144     1
     39     53     1
     39     54     1
     41    115     1
     41     50     1
     41     51     1
     42    115     1
     42     50     1
     42     51     1
     44     86     1
     44     47     1
     44     48     1
     45     86     1
     45     47     1
     45     48     1
     46     78     1
     46     79     1
     47     77     1
     48     77     1
     49    107     1
     49    108     1
     50    106     1
     51    106     1
     52    136     1
     52    137     1
     53    135     1
     54    135     1
     55    165     1
     55    166     1
     56    164     1
     57    164     1
     58     72     1
     58     73     1
     58     75     1
     58     76     1
     58     69     1
     58     70     1
     59     63     1
     59     64     1
     59     66     1
     59     67     1
     59     84     1
     59     85     1
     60     62     1
     60     65     1
     60     83     1
     60     72     1
     60     73     1
     61     62     1
     61     65     1
     61     83     1
     61     72     1
     61     73     1
     62     66     1
     62     67     1
     62     81     1
     62     82     1
     63     65     1
     63     80     1
     63     75     1
     63     76     1
     64     65     1
     64     80     1
     64     75     1
     64     76     1
     65     78     1
     65     79     1
     66     77     1
     66     69     1
     66     70     1
     67     77     1
     67     69     1
     67     70     1
     69     86     1
     69     78     1
     69     79     1
     70     86     1
     70     78     1
     70     79     1
     72    231     1
     72     84     1
     72     85     1
     73    231     1
     73     84     1
     73     85     1
     75    202     1
     75     81     1
     75     82     1
     76    202     1
     76     81     1
     76     82     1
     80    194     1
     80    195     1
     81    193     1
     82    193     1
     83    223     1
     83    224     1
     84    222     1
     85    222     1
     87    101     1
     87    102     1
     87    104     1
     87    105     1
     87     98     1
     87     99     1
     88     92     1
     88     93     1
     88     95     1
     88     96     1
     88    113     1
     88    114     1
     89     91     1
     89     94     1
     89    112     1
     89    101     1
     89    102     1
     90     91     1
     90     94     1
     90    112     1
     90    101     1
     90    102     1
     91     95     1
     91     96     1
     91    110     1
     91    111     1
     92     94     1
     92    109     1
     92    104     1
     92    105     1
     93     94     1
     93    109     1
     93    104     1
     93    105     1
     94    107     1
     94    108     1
     95    106     1
     95     98     1
     95     99     1
     96    106     1
     96     98     1
     96     99     1
     98    115     1
     98    107     1
     98    108     1
     99    115     1
     99    107     1
     99    108     1
    101    289     1
    101    113     1
    101    114     1
    102    289     1
    102    113     1
    102    114     1
    104    260     1
    104    110     1
    104    111     1
    105    260     1
    105    110     1
    105    111     1
    109    252     1
    109    253     1
    110    251     1
    111    251     1
    112    281     1
    112    282     1
    113    280     1
    114    280     1
    116    130     1
    116    131     1
    116    133     1
    116    134     1
    116    127     1
    116    128     1
    117    121     1
    117    122     1
    117    124     1
    117    125     1
    117    142     1
    117    143     1
    118    120     1
    118    123     1
    118    141     1
    118    130     1
    118    131     1
    119    120     1
    119    123     1
    119    141     1
    119    130     1
    119    131     1
    120    124     1
    120    125     1
    120    139     1
    120    140     1
    121    123     1
    121    138     1
    121    133     1
    121    134     1
    122    123     1
    122    138     1
    122    133     1
    122    134     1
    123    136     1
    123    137     1
    124    135     1
    124    127     1
    124    128     1
    125    135     1
    125    127     1
    125    128     1
    127    144     1
    127    136     1
    127    137     1
    128    144     1
    128    136     1
    128    137     1
    130    347     1
    130    142     1
    130    143     1
    131    347     1
    131    142     1
    131    143     1
    133    318     1
    133    139     1
    133    140     1
    134    318     1
    134    139     1
    134    140     1
    138    310     1
    138    311     1
    139    309     1
    140    309     1
    141    339     1
    141    340     1
    142    338     1
    143    338     1
    145    159     1
    145    160     1
    145    162     1
    145    163     1
    145    156     1
    145    157     1
    146    150     1
    146    151     1
    146    153     1
    146    154     1
    146    171     1
    146    172     1
    147    149     1
    147    152     1
    147    170     1
    147    159     1
    147    160     1
    148    149     1
    148    152     1
    148    170     1
    148    159     1
    148    160     1
    149    153     1
    149    154     1
    149    168     1
    149    169     1
    150    152     1
    150    167     1
    150    162     1
    150    163     1
    151    152     1
    151    167     1
    151    162     1
    151    163     1
    152    165     1
    152    166     1
    153    164     1
    153    156     1
    153    157     1
    154    164     1
    154    156     1
    154    157     1
    156    173     1
    156    165     1
    156    166     1
    157    173     1
    157    165     1
    157    166     1
    159    405     1
    159    171     1
    159    172     1
    160    405     1
    160    171     1
    160    172     1
    162    376     1
    162    168     1
    162    169     1
    163    376     1
    163    168     1
    163    169     1
    167    368     1
    167    369     1
    168    367     1
    169    367     1
    170    397     1
    170    398     1
    171    396     1
    172    396     1
    174    188     1
    174    189     1
    174    191     1
    174    192     1
    174    185     1
    174    186     1
    175    179     1
    175    180     1
    175    182     1
    175    183     1
    175    200     1
    175    201     1
    176    178     1
    176    181     1
    176    199     1
    176    188     1
    176    189     1
    177    178     1
    177    181     1
    177    199     1
    177    188     1
    177    189     1
    178    182     1
    178    183     1
    178    197     1
    178    198     1
    179    181     1
    179    196     1
    179    191     1
    179    192     1
    180    181     1
    180    196     1
    180    191     1
    180    192     1
    181    194     1
    181    195     1
    182    193     1
    182    185     1
    182    186     1
    183    193     1
    183    185     1
    183    186     1
    185    202     1
    185    194     1
    185    195     1
    186    202     1
    186    194     1
    186    195     1
    188    463     1
    188    200     1
    188    201     1
    189    463     1
    189    200     1
    189    201     1
    191    434     1
    191    197     1
    191    198     1
    192    434     1
    192    197     1
    192    198     1
    196    426     1
    196    427     1
    197    425     1
    198    425     1
    199    455     1
    199    456     1
    200    454     1
    201    454     1
    203    217     1
    203    218     1
    203    220     1
    203    221     1
    203    214     1
    203    215     1
    204    208     1
    204    209     1
    204    211     1
    204    212     1
    204    229     1
    204    230     1
    205    207     1
    205    210     1
    205    228     1
    205    217     1
    205    218     1
    206    207     1
    206    210     1
    206    228     1
    206    217     1
    206    218     1
    207    211     1
    207    212     1
    207    226     1
    207    227     1
    208    210     1
    208    225     1
    208    220     1
    208    221     1
    209    210     1
    209    225     1
    209    220     1
    209    221     1
    210    223     1
    210    224     1
    211    222     1
    211    214     1
    211    215     1
    212    222     1
    212    214     1
    212    215     1
    214    231     1
    214    223     1
    214    224     1
    215    231     1
    215    223     1
    215    224     1
    217    521     1
    217    229     1
    217    230     1
    218    521     1
    218    229     1
    218    230     1
    220    492     1
    220    226     1
    220    227     1
    221    492     1
    221    226     1
    221    227     1
    225    484     1
    225    485     1
    226    483     1
    227    483     1
    228    513     1
    228    514     1
    229    512     1
    230    512     1
    232    246     1
    232    247     1
    232    249     1
    232    250     1
    232    243     1
    232    244     1
    233    237     1
    233    238     1
    233    240     1
    233    241     1
    233    258     1
    233    259     1
    234    236     1
    234    239     1
    234    257     1
    234    246     1
    234    247     1
    235    236     1
    235    239     1
    235    257     1
    235    246     1
    235    247     1
    236    240     1
    236    241     1
    236    255     1
    236    256     1
    237    239     1
    237    254     1
    237    249     1
    237    250     1
    238    239     1
    238    254     1
    238    249     1
    238    250     1
    239    252     1
    239    253     1
    240    251     1
    240    243     1
    240    244     1
    241    251     1
    241    243     1
    241    244     1
    243    260     1
    243    252     1
    243    253     1
    244    260     1
    244    252     1
    244    253     1
    246    579     1
    246    258     1
    246    259     1
    247    579     1
    247    258     1
    247    259     1
    249    550     1
    249    255     1
    249    256     1
    250    550     1
    250    255     1
    250    256     1
    254    542     1
    254    543     1
    255    541     1
    256    541     1
    257    571     1
    257    572     1
    258    570     1
    259    570     1
    261    275     1
    261    276     1
    261    278     1
    261    279     1
    261    272     1
    261    273     1
    262    266     1
    262    267     1
    262    269     1
    262    270     1
    262    287     1
    262    288     1
    263    265     1
    263    268     1
    263    286     1
    263    275     1
    263    276     1
    264    265     1
    264    268     1
    264    286     1
    264    275     1
    264    276     1
    265    269     1
    265    270     1
    265    284     1
    265    285     1
    266    268     1
    266    283     1
    266    278     1
    266    279     1
    267    268     1
    267    283     1
    267    278     1
    267    279     1
    268    281     1
    268    282     1
    269    280     1
    269    272     1
    269    273     1
    270    280     1
    270    272     1
    270    273     1
    272    289     1
    272    281     1
    272    282     1
    273    289     1
    273    281     1
    273    282     1
    275    637     1
    275    287     1
    275    288     1
    276    637     1
    276    287     1
    276    288     1
    278    608     1
    278    284     1
    278    285     1
    279    608     1
    279    284     1
    279    285     1
    283    600     1
    283    601     1
    284    599     1
    285    599     1
    286    629     1
    286    630     1
    287    628     1
    288    628     1
    290    304     1
    290    305     1
    290    307     1
    290    308     1
    290    301     1
    290    302     1
    291    295     1
    291    296     1
    291    298     1
    291    299     1
    291    316     1
    291    317     1
    292    294     1
    292    297     1
    292    315     1
    292    304     1
    292    305     1
    293    294     1
    293    297     1
    293    315     1
    293    304     1
    293    305     1
    294    298     1
    294    299     1
    294    313     1
    294    314     1
    295    297     1
    295    312     1
    295    307     1
    295    308     1
    296    297     1
    296    312     1
    296    307     1
    296    308     1
    297    310     1
    297    311     1
    298    309     1
    298    301     1
    298    302     1
    299    309     1
    299    301     1
    299    302     1
    301    318     1
    301    310     1
    301    311     1
    302    318     1
    302    310     1
    302    311     1
    304    695     1
    304    316     1
    304    317     1
    305    695     1
    305    316     1
    305    317     1
    307    666     1
    307    313     1
    307    314     1
    308    666     1
    308    313     1
    308    314     1
    312    658     1
    312    659     1
    313    657     1
    314    657     1
    315    687     1
    315    688     1
    316    686     1
    317    686     1
    319    333     1
    319    334     1
    319    336     1
    319    337     1
    319    330     1
    319    331     1
    320    324     1
    320    325     1
    320    327     1
    320    328     1
    320    345     1
    320    346     1
    321    323     1
    321    326     1
    321    344     1
    321    333     1
    321    334     1
    322    323     1
    322    326     1
    322    344     1
    322    333     1
    322    334     1
    323    327     1
    323    328     1
    323    342     1
    323    343     1
    324    326     1
    324    341     1
    324    336     1
    324    337     1
    325    326     1
    325    341     1
    325    336     1
    325    337     1
    326    339     1
    326    340     1
    327    338     1
    327    330     1
    327    331     1
    328    338     1
    328    330     1
    328    331     1
    330    347     1
    330    339     1
    330    340     1
    331    347     1
    331    339     1
    331    340     1
    333    753     1
    333    345     1
    333    346     1
    334    753     1
    334    345     1
    334    346     1
    336    724     1
    336    342     1
    336    343     1
    337    724     1
    337    342     1
    337    343     1
    341    716     1
    341    717     1
    342    715     1
    343    715     1
    344    745     1
    344    746     1
    345    744     1
    346    744     1
    348    362     1
    348    363     1
    348    365     1
    348    366     1
    348    359     1
    348    360     1
    349    353     1
    349    354     1
    349    356     1
    349    357     1
    349    374     1
    349    375     1
    350    352     1
    350    355     1
    350    373     1
    350    362     1
    350    363     1
    351    352     1
    351    355     1
    351    373     1
    351    362     1
    351    363     1
    352    356     1
    352    357     1
    352    371     1
    352    372     1
    353    355     1
    353    370     1
    353    365     1
    353    366     1
    354    355     1
    354    370     1
    354    365     1
    354    366     1
    355    368     1
    355    369     1
    356    367     1
    356    359     1
    356    360     1
    357    367     1
    357    359     1
    357    360     1
    359    376     1
    359    368     1
    359    369     1
    360    376     1
    360    368     1
    360    369     1
    362    811     1
    362    374     1
    362    375     1
    363    811     1
    363    374     1
    363    375     1
    365    782     1
    365    371     1
    365    372     1
    366    782     1
    366    371     1
    366    372     1
    370    774     1
    370    775     1
    371    773     1
    372    773     1
    373    803     1
    373    804     1
    374    802     1
    375    802     1
    377    391     1
    377    392     1
    377    394     1
    377    395     1
    377    388     1
    377    389     1
    378    382     1
    378    383     1
    378    385     1
    378    386     1
    378    403     1
    378    404     1
    379    381     1
    379    384     1
    379    402     1
    379    391     1
    379    392     1
    380    381     1
    380    384     1
    380    402     1
    380    391     1
    380    392     1
    381    385     1
    381    386     1
    381    400     1
    381    401     1
    382    384     1
    382    399     1
    382    394     1
    382    395     1
    383    384     1
    383    399     1
    383    394     1
    383    395     1
    384    397     1
    384    398     1
    385    396     1
    385    388     1
    385    389     1
    386    396     1
    386    388     1
    386    389     1
    388    405     1
    388    397     1
    388    398     1
    389    405     1
    389    397     1
    389    398     1
    391    869     1
    391    403     1
    391    404     1
    392    869     1
    392    403     1
    392    404     1
    394    840     1
    394    400     1
    394    401     1
    395    840     1
    395    400     1
    395    401     1
    399    832     1
    399    833     1
    400    831     1
    401    831     1
    402    861     1
    402    862     1
    403    860     1
    404    860     1
    406    420     1
    406    421     1
    406    423     1
    406    424     1
    406    417     1
    406    418     1
    407    411     1
    407    412     1
    407    414     1
    407    415     1
    407    432     1
    407    433     1
    408    410     1
    408    413     1
    408    431     1
    408    420     1
    408    421     1
    409    410     1
    409    413     1
    409    431     1
    409    420     1
    409    421     1
    410    414     1
    410    415     1
    410    429     1
    410    430     1
    411    413     1
    411    428     1
    411    423     1
    411    424     1
    412    413     1
    412    428     1
    412    423     1
    412    424     1
    413    426     1
    413    427     1
    414    425     1
    414    417     1
    414    418     1
    415    425     1
    415    417     1
    415    418     1
    417    434     1
    417    426     1
    417    427     1
    418    434     1
    418    426     1
    418    427     1
    420    927     1
    420    432     1
    420    433     1
    421    927     1
    421    432     1
    421    433     1
    423    898     1
    423    429     1
    423    430     1
    424    898     1
    424    429     1
    424    430     1
    428    890     1
    428    891     1
    429    889     1
    430    889     1
    431    919     1
    431    920     1
    432    918     1
    433    918     1
    435    449     1
    435    450     1
    435    452     1
    435    453     1
    435    446     1
    435    447     1
    436    440     1
    436    441     1
    436    443     1
    436    444     1
    436    461     1
    436    462     1
    437    439     1
    437    442     1
    437    460     1
    437    449     1
    437    450     1
    438    439     1
    438    442     1
    438    460     1
    438    449     1
    438    450     1
    439    443     1
    439    444     1
    439    458     1
    439    459     1
    440    442     1
    440    457     1
    440    452     1
    440    453     1
    441    442     1
    441    457     1
    441    452     1
    441    453     1
    442    455     1
    442    456     1
    443    454     1
    443    446     1
    443    447     1
    444    454     1
    444    446     1
    444    447     1
    446    463     1
    446    455     1
    446    456     1
    447    463     1
    447    455     1
    447    456     1
    449    985     1
    449    461     1
    449    462     1
    450    985     1
    450    461     1
    450    462     1
    452    956     1
    452    458     1
    452    459     1
    453    956     1
    453    458     1
    453    459     1
    457    948     1
    457    949     1
    458    947     1
    459    947     1
    460    977     1
    460    978     1
    461    976     1
    462    976     1
    464    478     1
    464    479     1
    464    481     1
    464    482     1
    464    475     1
    464    476     1
    465    469     1
    465    470     1
    465    472     1
    465    473     1
    465    490     1
    465    491     1
    466    468     1
    466    471     1
    466    489     1
    466    478     1
    466    479     1
    467    468     1
    467    471     1
    467    489     1
    467    478     1
    467    479     1
    468    472     1
    468    473     1
    468    487     1
    468    488     1
    469    471     1
    469    486     1
    469    481     1
    469    482     1
    470    471     1
    470    486     1
    470    481     1
    470    482     1
    471    484     1
    471    485     1
    472    483     1
    472    475     1
    472    476     1
    473    483     1
    473    475     1
    473    476     1
    475    492     1
    475    484     1
    475    485     1
    476    492     1
    476    484     1
    476    485     1
    478   1043     1
    478    490     1
    478    491     1
    479   1043     1
    479    490     1
    479    491     1
    481   1014     1
    481    487     1
    481    488     1
    482   1014     1
    482    487     1
    482    488     1
    486   1006     1
    486   1007     1
    487   1005     1
    488   1005     1
    489   1035     1
    489   1036     1
    490   1034     1
    491   1034     1
    493    507     1
    493    508     1
    493    510     1
    493    511     1
    493    504     1
    493    505     1
    494    498     1
    494    499     1
    494    501     1
    494    502     1
    494    519     1
    494    520     1
    495    497     1
    495    500     1
    495    518     1
    495    507     1
    495    508     1
    496    497     1
    496    500     1
    496    518     1
    496    507     1
    496    508     1
    497    501     1
    497    502     1
    497    516     1
    497    517     1
    498    500     1
    498    515     1
    498    510     1
    498    511     1
    499    500     1
    499    515     1
    499    510     1
    499    511     1
    500    513     1
    500    514     1
    501    512     1
    501    504     1
    501    505     1
    502    512     1
    502    504     1
    502    505     1
    504    521     1
    504    513     1
    504    514     1
    505    521     1
    505    513     1
    505    514     1
    507   1101     1
    507    519     1
    507    520     1
    508   1101     1
    508    519     1
    508    520     1
    510   1072     1
    510    516     1
    510    517     1
    511   1072     1
    511    516     1
    511    517     1
    515   1064     1
    515   1065     1
    516   1063     1
    517   1063     1
    518   1093     1
    518   1094     1
    519   1092     1
    520   1092     1
    522    536     1
    522    537     1
    522    539     1
    522    540     1
    522    533     1
    522    534     1
    523    527     1
    523    528     1
    523    530     1
    523    531     1
    523    548     1
    523    549     1
    524    526     1
    524    529     1
    524    547     1
    524    536     1
    524    537     1
    525    526     1
    525    529     1
    525    547     1
    525    536     1
    525    537     1
    526    530     1
    526    531     1
    526    545     1
    526    546     1
    527    529     1
    527    544     1
    527    539     1
    527    540     1
    528    529     1
    528    544     1
    528    539     1
    528    540     1
    529    542     1
    529    543     1
    530    541     1
    530    533     1
    530    534     1
    531    541     1
    531    533     1
    531    534     1
    533    550     1
    533    542     1
    533    543     1
    534    550     1
    534    542     1
    534    543     1
    536   1159     1
    536    548     1
    536    549     1
    537   1159     1
    537    548     1
    537    549     1
    539   1130     1
    539    545     1
    539    546     1
    540   1130     1
    540    545     1
    540    546     1
    544   1122     1
    544   1123     1
    545   1121     1
    546   1121     1
    547   1151     1
    547   1152     1
    548   1150     1
    549   1150     1
    551    565     1
    551    566     1
    551    568     1
    551    569     1
    551    562     1
    551    563     1
    552    556     1
    552    557     1
    552    559     1
    552    560     1
    552    577     1
    552    578     1
    553    555     1
    553    558     1
    553    576     1
    553    565     1
    553    566     1
    554    555     1
    554    558     1
    554    576     1
    554    565     1
    554    566     1
    555    559     1
    555    560     1
    555    574     1
    555    575     1
    556    558     1
    556    573     1
    556    568     1
    556    569     1
    557    558     1
    557    573     1
    557    568     1
    557    569     1
    558    571     1
    558    572     1
    559    570     1
    559    562     1
    559    563     1
    560    570     1
    560    562     1
    560    563     1
    562    579     1
    562    571     1
    562    572     1
    563    579     1
    563    571     1
    563    572     1
    565   1217     1
    565    577     1
    565    578     1
    566   1217     1
    566    577     1
    566    578     1
    568   1188     1
    568    574     1
    568    575     1
    569   1188     1
    569    574     1
    569    575     1
    573   1180     1
    573   1181     1
    574   1179     1
    575   1179     1
    576   1209     1
    576   1210     1
    577   1208     1
    578   1208     1
    580    594     1
    580    595     1
    580    597     1
    580    598     1
    580    591     1
    580    592     1
    581    585     1
    581    586     1
    581    588     1
    581    589     1
    581    606     1
    581    607     1
    582    584     1
    582    587     1
    582    605     1
    582    594     1
    582    595     1
    583    584     1
    583    587     1
    583    605     1
    583    594     1
    583    595     1
    584    588     1
    584    589     1
    584    603     1
    584    604     1
    585    587     1
    585    602     1
    585    597     1
    585    598     1
    586    587     1
    586    602     1
    586    597     1
    586    598     1
    587    600     1
    587    601     1
    588    599     1
    588    591     1
    588    592     1
    589    599     1
    589    591     1
    589    592     1
    591    608     1
    591    600     1
    591    601     1
    592    608     1
    592    600     1
    592    601     1
    594   1275     1
    594    606     1
    594    607     1
    595   1275     1
    595    606     1
    595    607     1
    597   1246     1
    597    603     1
    597    604     1
    598   1246     1
    598    603     1
    598    604     1
    602   1238     1
    602   1239     1
    603   1237     1
    604   1237     1
    605   1267     1
    605   1268     1
    606   1266     1
    607   1266     1
    609    623     1
    609    624     1
    609    626     1
    609    627     1
    609    620     1
    609    621     1
    610    614     1
    610    615     1
    610    617     1
    610    618     1
    610    635     1
    610    636     1
    611    613     1
    611    616     1
    611    634     1
    611    623     1
    611    624     1
    612    613     1
    612    616     1
    612    634     1
    612    623     1
    612    624     1
    613    617     1
    613    618     1
    613    632     1
    613    633     1
    614    616     1
    614    631     1
    614    626     1
    614    627     1
    615    616     1
    615    631     1
    615    626     1
    615    627     1
    616    629     1
    616    630     1
    617    628     1
    617    620     1
    617    621     1
    618    628     1
    618    620     1
    618    621     1
    620    637     1
    620    629     1
    620    630     1
    621    637     1
    621    629     1
    621    630     1
    623   1333     1
    623    635     1
    623    636     1
    624   1333     1
    624    635     1
    624    636     1
    626   1304     1
    626    632     1
    626    633     1
    627   1304     1
    627    632     1
    627    633     1
    631   1296     1
    631   1297     1
    632   1295     1
    633   1295     1
    634   1325     1
    634   1326     1
    635   1324     1
    636   1324     1
    638    652     1
    638    653     1
    638    655     1
    638    656     1
    638    649     1
    638    650     1
    639    643     1
    639    644     1
    639    646     1
    639    647     1
    639    664     1
    639    665     1
    640    642     1
    640    645     1
    640    663     1
    640    652     1
    640    653     1
    641    642     1
    641    645     1
    641    663     1
    641    652     1
    641    653     1
    642    646     1
    642    647     1
    642    661     1
    642    662     1
    643    645     1
    643    660     1
    643    655     1
    643    656     1
    644    645     1
    644    660     1
    644    655     1
    644    656     1
    645    658     1
    645    659     1
    646    657     1
    646    649     1
    646    650     1
    647    657     1
    647    649     1
    647    650     1
    649    666     1
    649    658     1
    649    659     1
    650    666     1
    650    658     1
    650    659     1
    652   1391     1
    652    664     1
    652    665     1
    653   1391     1
    653    664     1
    653    665     1
    655   1362     1
    655    661     1
    655    662     1
    656   1362     1
    656    661     1
    656    662     1
    660   1354     1
    660   1355     1
    661   1353     1
    662   1353     1
    663   1383     1
    663   1384     1
    664   1382     1
    665   1382     1
    667    681     1
    667    682     1
    667    684     1
    667    685     1
    667    678     1
    667    679     1
    668    672     1
    668    673     1
    668    675     1
    668    676     1
    668    693     1
    668    694     1
    669    671     1
    669    674     1
    669    692     1
    669    681     1
    669    682     1
    670    671     1
    670    674     1
    670    692     1
    670    681     1
    670    682     1
    671    675     1
    671    676     1
    671    690     1
    671    691     1
    672    674     1
    672    689     1
    672    684     1
    672    685     1
    673    674     1
    673    689     1
    673    684     1
    673    685     1
    674    687     1
    674    688     1
    675    686     1
    675    678     1
    675    679     1
    676    686     1
    676    678     1
    676    679     1
    678    695     1
    678    687     1
    678    688     1
    679    695     1
    679    687     1
    679    688     1
    681   1449     1
    681    693     1
    681    694     1
    682   1449     1
    682    693     1
    682    694     1
    684   1420     1
    684    690     1
    684    691     1
    685   1420     1
    685    690     1
    685    691     1
    689   1412     1
    689   1413     1
    690   1411     1
    691   1411     1
    692   1441     1
    692   1442     1
    693   1440     1
    694   1440     1
    696    710     1
    696    711     1
    696    713     1
    696    714     1
    696    707     1
    696    708     1
    697    701     1
    697    702     1
    697    704     1
    697    705     1
    697    722     1
    697    723     1
    698    700     1
    698    703     1
    698    721     1
    698    710     1
    698    711     1
    699    700     1
    699    703     1
    699    721     1
    699    710     1
    699    711     1
    700    704     1
    700    705     1
    700    719     1
    700    720     1
    701    703     1
    701    718     1
    701    713     1
    701    714     1
    702    703     1
    702    718     1
    702    713     1
    702    714     1
    703    716     1
    703    717     1
    704    715     1
    704    707     1
    704    708     1
    705    715     1
    705    707     1
    705    708     1
    707    724     1
    707    716     1
    707    717     1
    708    724     1
    708    716     1
    708    717     1
    710   1507     1
    710    722     1
    710    723     1
    711   1507     1
    711    722     1
    711    723     1
    713   1478     1
    713    719     1
    713    720     1
    714   1478     1
    714    719     1
    714    720     1
    718   1470     1
    718   1471     1
    719   1469     1
    720   1469     1
    721   1499     1
    721   1500     1
    722   1498     1
    723   1498     1
    725    739     1
    725    740     1
    725    742     1
    725    743     1
    725    736     1
    725    737     1
    726    730     1
    726    731     1
    726    733     1
    726    734     1
    726    751     1
    726    752     1
    727    729     1
    727    732     1
    727    750     1
    727    739     1
    727    740     1
    728    729     1
    728    732     1
    728    750     1
    728    739     1
    728    740     1
    729    733     1
    729    734     1
    729    748     1
    729    749     1
    730    732     1
    730    747     1
    730    742     1
    730    743     1
    731    732     1
    731    747     1
    731    742     1
    731    743     1
    732    745     1
    732    746     1
    733    744     1
    733    736     1
    733    737     1
    734    744     1
    734    736     1
    734    737     1
    736    753     1
    736    745     1
    736    746     1
    737    753     1
    737    745     1
    737    746     1
    739   1565     1
    739    751     1
    739    752     1
    740   1565     1
    740    751     1
    740    752     1
    742   1536     1
    742    748     1
    742    749     1
    743   1536     1
    743    748     1
    743    749     1
    747   1528     1
    747   1529     1
    748   1527     1
    749   1527     1
    750   1557     1
    750   1558     1
    751   1556     1
    752   1556     1
    754    768     1
    754    769     1
    754    771     1
    754    772     1
    754    765     1
    754    766     1
    755    759     1
    755    760     1
    755    762     1
    755    763     1
    755    780     1
    755    781     1
    756    758     1
    756    761     1
    756    779     1
    756    768     1
    756    769     1
    757    758     1
    757    761     1
    757    779     1
    757    768     1
    757    769     1
    758    762     1
    758    763     1
    758    777     1
    758    778     1
    759    761     1
    759    776     1
    759    771     1
    759    772     1
    760    761     1
    760    776     1
    760    771     1
    760    772     1
    761    774     1
    761    775     1
    762    773     1
    762    765     1
    762    766     1
    763    773     1
    763    765     1
    763    766     1
    765    782     1
    765    774     1
    765    775     1
    766    782     1
    766    774     1
    766    775     1
    768   1623     1
    768    780     1
    768    781     1
    769   1623     1
    769    780     1
    769    781     1
    771   1594     1
    771    777     1
    771    778     1
    772   1594     1
    772    777     1
    772    778     1
    776   1586     1
    776   1587     1
    777   1585     1
    778   1585     1
    779   1615     1
    779   1616     1
    780   1614     1
    781   1614     1
    783    797     1
    783    798     1
    783    800     1
    783    801     1
    783    794     1
    783    795     1
    784    788     1
    784    789     1
    784    791     1
    784    792     1
    784    809     1
    784    810     1
    785    787     1
    785    790     1
    785    808     1
    785    797     1
    785    798     1
    786    787     1
    786    790     1
    786    808     1
    786    797     1
    786    798     1
    787    791     1
    787    792     1
    787    806     1
    787    807     1
    788    790     1
    788    805     1
    788    800     1
    788    801     1
    789    790     1
    789    805     1
    789    800     1
    789    801     1
    790    803     1
    790    804     1
    791    802     1
    791    794     1
    791    795     1
    792    802     1
    792    794     1
    792    795     1
    794    811     1
    794    803     1
    794    804     1
    795    811     1
    795    803     1
    795    804     1
    797   1681     1
    797    809     1
    797    810     1
    798   1681     1
    798    809     1
    798    810     1
    800   1652     1
    800    806     1
    800    807     1
    801   1652     1
    801    806     1
    801    807     1
    805   1644     1
    805   1645     1
    806   1643     1
    807   1643     1
    808   1673     1
    808   1674     1
    809   1672     1
    810   1672     1
    812    826     1
    812    827     1
    812    829     1
    812    830     1
    812    823     1
    812    824     1
    813    817     1
    813    818     1
    813    820     1
    813    821     1
    813    838     1
    813    839     1
    814    816     1
    814    819     1
    814    837     1
    814    826     1
    814    827     1
    815    816     1
    815    819     1
    815    837     1
    815    826     1
    815    827     1
    816    820     1
    816    821     1
    816    835     1
    816    836     1
    817    819     1
    817    834     1
    817    829     1
    817    830     1
    818    819     1
    818    834     1
    818    829     1
    818    830     1
    819    832     1
    819    833     1
    820    831     1
    820    823     1
    820    824     1
    821    831     1
    821    823     1
    821    824     1
    823    840     1
    823    832     1
    823    833     1
    824    840     1
    824    832     1
    824    833     1
    826   1739     1
    826    838     1
    826    839     1
    827   1739     1
    827    838     1
    827    839     1
    829   1710     1
    829    835     1
    829    836     1
    830   1710     1
    830    835     1
    830    836     1
    834   1702     1
    834   1703     1
    835   1701     1
    836   1701     1
    837   1731     1
    837   1732     1
    838   1730     1
    839   1730     1
    841    855     1
    841    856     1
    841    858     1
    841    859     1
    841    852     1
    841    853     1
    842    846     1
    842    847     1
    842    849     1
    842    850     1
    842    867     1
    842    868     1
    843    845     1
    843    848     1
    843    866     1
    843    855     1
    843    856     1
    844    845     1
    844    848     1
    844    866     1
    844    855     1
    844    856     1
    845    849     1
    845    850     1
    845    864     1
    845    865     1
    846    848     1
    846    863     1
    846    858     1
    846    859     1
    847    848     1
    847    863     1
    847    858     1
    847    859     1
    848    861     1
    848    862     1
    849    860     1
    849    852     1
    849    853     1
    850    860     1
    850    852     1
    850    853     1
    852    869     1
    852    861     1
    852    862     1
    853    869     1
    853    861     1
    853    862     1
    855   1797     1
    855    867     1
    855    868     1
    856   1797     1
    856    867     1
    856    868     1
    858   1768     1
    858    864     1
    858    865     1
    859   1768     1
    859    864     1
    859    865     1
    863   1760     1
    863   1761     1
    864   1759     1
    865   1759     1
    866   1789     1
    866   1790     1
    867   1788     1
    868   1788     1
    870    884     1
    870    885     1
    870    887     1
    870    888     1
    870    881     1
    870    882     1
    871    875     1
    871    876     1
    871    878     1
    871    879     1
    871    896     1
    871    897     1
    872    874     1
    872    877     1
    872    895     1
    872    884     1
    872    885     1
    873    874     1
    873    877     1
    873    895     1
    873    884     1
    873    885     1
    874    878     1
    874    879     1
    874    893     1
    874    894     1
    875    877     1
    875    892     1
    875    887     1
    875    888     1
    876    877     1
    876    892     1
    876    887     1
    876    888     1
    877    890     1
    877    891     1
    878    889     1
    878    881     1
    878    882     1
    879    889     1
    879    881     1
    879    882     1
    881    898     1
    881    890     1
    881    891     1
    882    898     1
    882    890     1
    882    891     1
    884   1855     1
    884    896     1
    884    897     1
    885   1855     1
    885    896     1
    885    897     1
    887   1826     1
    887    893     1
    887    894     1
    888   1826     1
    888    893     1
    888    894     1
    892   1818     1
    892   1819     1
    893   1817     1
    894   1817     1
    895   1847     1
    895   1848     1
    896   1846     1
    897   1846     1
    899    913     1
    899    914     1
    899    916     1
    899    917     1
    899    910     1
    899    911     1
    900    904     1
    900    905     1
    900    907     1
    900    908     1
    900    925     1
    900    926     1
    901    903     1
    901    906     1
    901    924     1
    901    913     1
    901    914     1
    902    903     1
    902    906     1
    902    924     1
    902    913     1
    902    914     1
    903    907     1
    903    908     1
    903    922     1
    903    923     1
    904    906     1
    904    921     1
    904    916     1
    904    917     1
    905    906     1
    905    921     1
    905    916     1
    905    917     1
    906    919     1
    906    920     1
    907    918     1
    907    910     1
    907    911     1
    908    918     1
    908    910     1
    908    911     1
    910    927     1
    910    919     1
    910    920     1
    911    927     1
    911    919     1
    911    920     1
    913   1913     1
    913    925     1
    913    926     1
    914   1913     1
    914    925     1
    914    926     1
    916   1884     1
    916    922     1
    916    923     1
    917   1884     1
    917    922     1
    917    923     1
    921   1876     1
    921   1877     1
    922   1875     1
    923   1875     1
    924   1905     1
    924   1906     1
    925   1904     1
    926   1904     1
    928    942     1
    928    943     1
    928    945     1
    928    946     1
    928    939     1
    928    940     1
    929    933     1
    929    934     1
    929    936     1
    929    937     1
    929    954     1
    929    955     1
    930    932     1
    930    935     1
    930    953     1
    930    942     1
    930    943     1
    931    932     1
    931    935     1
    931    953     1
    931    942     1
    931    943     1
    932    936     1
    932    937     1
    932    951     1
    932    952     1
    933    935     1
    933    950     1
    933    945     1
    933    946     1
    934    935     1
    934    950     1
    934    945     1
    934    946     1
    935    948     1
    935    949     1
    936    947     1
    936    939     1
    936    940     1
    937    947     1
    937    939     1
    937    940     1
    939    956     1
    939    948     1
    939    949     1
    940    956     1
    940    948     1
    940    949     1
    942   1971     1
    942    954     1
    942    955     1
    943   1971     1
    943    954     1
    943    955     1
    945   1942     1
    945    951     1
    945    952     1
    946   1942     1
    946    951     1
    946    952     1
    950   1934     1
    950   1935     1
    951   1933     1
    952   1933     1
    953   1963     1
    953   1964     1
    954   1962     1
    955   1962     1
    957    971     1
    957    972     1
    957    974     1
    957    975     1
    957    968     1
    957    969     1
    958    962     1
    958    963     1
    958    965     1
    958    966     1
    958    983     1
    958    984     1
    959    961     1
    959    964     1
    959    982     1
    959    971     1
    959    972     1
    960    961     1
    960    964     1
    960    982     1
    960    971     1
    960    972     1
    961    965     1
    961    966     1
    961    980     1
    961    981     1
    962    964     1
    962    979     1
    962    974     1
    962    975     1
    963    964     1
    963    979     1
    963    974     1
    963    975     1
    964    977     1
    964    978     1
    965    976     1
    965    968     1
    965    969     1
    966    976     1
    966    968     1
    966    969     1
    968    985     1
    968    977     1
    968    978     1
    969    985     1
    969    977     1
    969    978     1
    971   2029     1
    971    983     1
    971    984     1
    972   2029     1
    972    983     1
    972    984     1
    974   2000     1
    974    980     1
    974    981     1
    975   2000     1
    975    980     1
    975    981     1
    979   1992     1
    979   1993     1
    980   1991     1
    981   1991     1
    982   2021     1
    982   2022     1
    983   2020     1
    984   2020     1
    986   1000     1
    986   1001     1
    986   1003     1
    986   1004     1
    986    997     1
    986    998     1
    987    991     1
    987    992     1
    987    994     1
    987    995     1
    987   1012     1
    987   1013     1
    988    990     1
    988    993     1
    988   1011     1
    988   1000     1
    988   1001     1
    989    990     1
    989    993     1
    989   1011     1
    989   1000     1
    989   1001     1
    990    994     1
    990    995     1
    990   1009     1
    990   1010     1
    991    993     1
    991   1008     1
    991   1003     1
    991   1004     1
    992    993     1
    992   1008     1
    992   1003     1
    992   1004     1
    993   1006     1
    993   1007     1
    994   1005     1
    994    997     1
    994    998     1
    995   1005     1
    995    997     1
    995    998     1
    997   1014     1
    997   1006     1
    997   1007     1
    998   1014     1
    998   1006     1
    998   1007     1
   1000   2087     1
   1000   1012     1
   1000   1013     1
   1001   2087     1
   1001   1012     1
   1001   1013     1
   1003   2058     1
   1003   1009     1
   1003   1010     1
   1004   2058     1
   1004   1009     1
   1004   1010     1
   1008   2050     1
   1008   2051     1
   1009   2049     1
   1010   2049     1
   1011   2079     1
   1011   2080     1
   1012   2078     1
   1013   2078     1
   1015   1029     1
   1015   1030     1
   1015   1032     1
   1015   1033     1
   1015   1026     1
   1015   1027     1
   1016   1020     1
   1016   1021     1
   1016   1023     1
   1016   1024     1
   1016   1041     1
   1016   1042     1
   1017   1019     1
   1017   1022     1
   1017   1040     1
   1017   1029     1
   1017   1030     1
   1018   1019     1
   1018   1022     1
   1018   1040     1
   1018   1029     1
   1018   1030     1
   1019   1023     1
   1019   1024     1
   1019   1038     1
   1019   1039     1
   1020   1022     1
   1020   1037     1
   1020   1032     1
   1020   1033     1
   1021   1022     1
   1021   1037     1
   1021   1032     1
   1021   1033     1
   1022   1035     1
   1022   1036     1
   1023   1034     1
   1023   1026     1
   1023   1027     1
   1024   1034     1
   1024   1026     1
   1024   1027     1
   1026   1043     1
   1026   1035     1
   1026   1036     1
   1027   1043     1
   1027   1035     1
   1027   1036     1
   1029   2145     1
   1029   1041     1
   1029   1042     1
   1030   2145     1
   1030   1041     1
   1030   1042     1
   1032   2116     1
   1032   1038     1
   1032   1039     1
   1033   2116     1
   1033   1038     1
   1033   1039     1
   1037   2108     1
   1037   2109     1
   1038   2107     1
   1039   2107     1
   1040   2137     1
   1040   2138     1
   1041   2136     1
   1042   2136     1
   1044   1058     1
   1044   1059     1
   1044   1061     1
   1044   1062     1
   1044   1055     1
   1044   1056     1
   1045   1049     1
   1045   1050     1
   1045   1052     1
   1045   1053     1
   1045   1070     1
   1045   1071     1
   1046   1048     1
   1046   1051     1
   1046   1069     1
   1046   1058     1
   1046   1059     1
   1047   1048     1
   1047   1051     1
   1047   1069     1
   1047   1058     1
   1047   1059     1
   1048   1052     1
   1048   1053     1
   1048   1067     1
   1048   1068     1
   1049   1051     1
   1049   1066     1
   1049   1061     1
   1049   1062     1
   1050   1051     1
   1050   1066     1
   1050   1061     1
   1050   1062     1
   1051   1064     1
   1051   1065     1
   1052   1063     1
   1052   1055     1
   1052   1056     1
   1053   1063     1
   1053   1055     1
   1053   1056     1
   1055   1072     1
   1055   1064     1
   1055   1065     1
   1056   1072     1
   1056   1064     1
   1056   1065     1
   1058   2203     1
   1058   1070     1
   1058   1071     1
   1059   2203     1
   1059   1070     1
   1059   1071     1
   1061   2174     1
   1061   1067     1
   1061   1068     1
   1062   2174     1
   1062   1067     1
   1062   1068     1
   1066   2166     1
   1066   2167     1
   1067   2165     1
   1068   2165     1
   1069   2195     1
   1069   2196     1
   1070   2194     1
   1071   2194     1
   1073   1087     1
   1073   1088     1
   1073   1090     1
   1073   1091     1
   1073   1084     1
   1073   1085     1
   1074   1078     1
   1074   1079     1
   1074   1081     1
   1074   1082     1
   1074   1099     1
   1074   1100     1
   1075   1077     1
   1075   1080     1
   1075   1098     1
   1075   1087     1
   1075   1088     1
   1076   1077     1
   1076   1080     1
   1076   1098     1
   1076   1087     1
   1076   1088     1
   1077   1081     1
   1077   1082     1
   1077   1096     1
   1077   1097     1
   1078   1080     1
   1078   1095     1
   1078   1090     1
   1078   1091     1
   1079   1080     1
   1079   1095     1
   1079   1090     1
   1079   1091     1
   1080   1093     1
   1080   1094     1
   1081   1092     1
   1081   1084     1
   1081   1085     1
   1082   1092     1
   1082   1084     1
   1082   1085     1
   1084   1101     1
   1084   1093     1
   1084   1094     1
   1085   1101     1
   1085   1093     1
   1085   1094     1
   1087   2261     1
   1087   1099     1
   1087   1100     1
   1088   2261     1
   1088   1099     1
   1088   1100     1
   1090   2232     1
   1090   1096     1
   1090   1097     1
   1091   2232     1
   1091   1096     1
   1091   1097     1
   1095   2224     1
   1095   2225     1
   1096   2223     1
   1097   2223     1
   1098   2253     1
   1098   2254     1
   1099   2252     1
   1100   2252     1
   1102   1116     1
   1102   1117     1
   1102   1119     1
   1102   1120     1
   1102   1113     1
   1102   1114     1
   1103   1107     1
   1103   1108     1
   1103   1110     1
   1103   1111     1
   1103   1128     1
   1103   1129     1
   1104   1106     1
   1104   1109     1
   1104   1127     1
   1104   1116     1
   1104   1117     1
   1105   1106     1
   1105   1109     1
   1105   1127     1
   1105   1116     1
   1105   1117     1
   1106   1110     1
   1106   1111     1
   1106   1125     1
   1106   1126     1
   1107   1109     1
   1107   1124     1
   1107   1119     1
   1107   1120     1
   1108   1109     1
   1108   1124     1
   1108   1119     1
   1108   1120     1
   1109   1122     1
   1109   1123     1
   1110   1121     1
   1110   1113     1
   1110   1114     1
   1111   1121     1
   1111   1113     1
   1111   1114     1
   1113   1130     1
   1113   1122     1
   1113   1123     1
   1114   1130     1
   1114   1122     1
   1114   1123     1
   1116   2319     1
   1116   1128     1
   1116   1129     1
   1117   2319     1
   1117   1128     1
   1117   1129     1
   1119   2290     1
   1119   1125     1
   1119   1126     1
   1120   2290     1
   1120   1125     1
   1120   1126     1
   1124   2282     1
   1124   2283     1
   1125   2281     1
   1126   2281     1
   1127   2311     1
   1127   2312     1
   1128   2310     1
   1129   2310     1
   1131   1145     1
   1131   1146     1
   1131   1148     1
   1131   1149     1
   1131   1142     1
   1131   1143     1
   1132   1136     1
   1132   1137     1
   1132   1139     1
   1132   1140     1
   1132   1157     1
   1132   1158     1
   1133   1135     1
   1133   1138     1
   1133   1156     1
   1133   1145     1
   1133   1146     1
   1134   1135     1
   1134   1138     1
   1134   1156     1
   1134   1145     1
   1134   1146     1
   1135   1139     1
   1135   1140     1
   1135   1154     1
   1135   1155     1
   1136   1138     1
   1136   1153     1
   1136   1148     1
   1136   1149     1
   1137   1138     1
   1137   1153     1
   1137   1148     1
   1137   1149     1
   1138   1151     1
   1138   1152     1
   1139   1150     1
   1139   1142     1
   1139   1143     1
   1140   1150     1
   1140   1142     1
   1140   1143     1
   1142   1159     1
   1142   1151     1
   1142   1152     1
   1143   1159     1
   1143   1151     1
   1143   1152     1
   1145   2377     1
   1145   1157     1
   1145   1158     1
   1146   2377     1
   1146   1157     1
   1146   1158     1
   1148   2348     1
   1148   1154     1
   1148   1155     1
   1149   2348     1
   1149   1154     1
   1149   1155     1
   1153   2340     1
   1153   2341     1
   1154   2339     1
   1155   2339     1
   1156   2369     1
   1156   2370     1
   1157   2368     1
   1158   2368     1
   1160   1174     1
   1160   1175     1
   1160   1177     1
   1160   1178     1
   1160   1171     1
   1160   1172     1
   1161   1165     1
   1161   1166     1
   1161   1168     1
   1161   1169     1
   1161   1186     1
   1161   1187     1
   1162   1164     1
   1162   1167     1
   1162   1185     1
   1162   1174     1
   1162   1175     1
   1163   1164     1
   1163   1167     1
   1163   1185     1
   1163   1174     1
   1163   1175     1
   1164   1168     1
   1164   1169     1
   1164   1183     1
   1164   1184     1
   1165   1167     1
   1165   1182     1
   1165   1177     1
   1165   1178     1
   1166   1167     1
   1166   1182     1
   1166   1177     1
   1166   1178     1
   1167   1180     1
   1167   1181     1
   1168   1179     1
   1168   1171     1
   1168   1172     1
   1169   1179     1
   1169   1171     1
   1169   1172     1
   1171   1188     1
   1171   1180     1
   1171   1181     1
   1172   1188     1
   1172   1180     1
   1172   1181     1
   1174   2435     1
   1174   1186     1
   1174   1187     1
   1175   2435     1
   1175   1186     1
   1175   1187     1
   1177   2406     1
   1177   1183     1
   1177   1184     1
   1178   2406     1
   1178   1183     1
   1178   1184     1
   1182   2398     1
   1182   2399     1
   1183   2397     1
   1184   2397     1
   1185   2427     1
   1185   2428     1
   1186   2426     1
   1187   2426     1
   1189   1203     1
   1189   1204     1
   1189   1206     1
   1189   1207     1
   1189   1200     1
   1189   1201     1
   1190   1194     1
   1190   1195     1
   1190   1197     1
   1190   1198     1
   1190   1215     1
   1190   1216     1
   1191   1193     1
   1191   1196     1
   1191   1214     1
   1191   1203     1
   1191   1204     1
   1192   1193     1
   1192   1196     1
   1192   1214     1
   1192   1203     1
   1192   1204     1
   1193   1197     1
   1193   1198     1
   1193   1212     1
   1193   1213     1
   1194   1196     1
   1194   1211     1
   1194   1206     1
   1194   1207     1
   1195   1196     1
   1195   1211     1
   1195   1206     1
   1195   1207     1
   1196   1209     1
   1196   1210     1
   1197   1208     1
   1197   1200     1
   1197   1201     1
   1198   1208     1
   1198   1200     1
   1198   1201     1
   1200   1217     1
   1200   1209     1
   1200   1210     1
   1201   1217     1
   1201   1209     1
   1201   1210     1
   1203   2493     1
   1203   1215     1
   1203   1216     1
   1204   2493     1
   1204   1215     1
   1204   1216     1
   1206   2464     1
   1206   1212     1
   1206   1213     1
   1207   2464     1
   1207   1212     1
   1207   1213     1
   1211   2456     1
   1211   2457     1
   1212   2455     1
   1213   2455     1
   1214   2485     1
   1214   2486     1
   1215   2484     1
   1216   2484     1
   1218   1232     1
   1218   1233     1
   1218   1235     1
   1218   1236     1
   1218   1229     1
   1218   1230     1
   1219   1223     1
   1219   1224     1
   1219   1226     1
   1219   1227     1
   1219   1244     1
   1219   1245     1
   1220   1222     1
   1220   1225     1
   1220   1243     1
   1220   1232     1
   1220   1233     1
   1221   1222     1
   1221   1225     1
   1221   1243     1
   1221   1232     1
   1221   1233     1
   1222   1226     1
   1222   1227     1
   1222   1241     1
   1222   1242     1
   1223   1225     1
   1223   1240     1
   1223   1235     1
   1223   1236     1
   1224   1225     1
   1224   1240     1
   1224   1235     1
   1224   1236     1
   1225   1238     1
   1225   1239     1
   1226   1237     1
   1226   1229     1
   1226   1230     1
   1227   1237     1
   1227   1229     1
   1227   1230     1
   1229   1246     1
   1229   1238     1
   1229   1239     1
   1230   1246     1
   1230   1238     1
   1230   1239     1
   1232   2551     1
   1232   1244     1
   1232   1245     1
   1233   2551     1
   1233   1244     1
   1233   1245     1
   1235   2522     1
   1235   1241     1
   1235   1242     1
   1236   2522     1
   1236   1241     1
   1236   1242     1
   1240   2514     1
   1240   2515     1
   1241   2513     1
   1242   2513     1
   1243   2543     1
   1243   2544     1
   1244   2542     1
   1245   2542     1
   1247   1261     1
   1247   1262     1
   1247   1264     1
   1247   1265     1
   1247   1258     1
   1247   1259     1
   1248   1252     1
   1248   1253     1
   1248   1255     1
   1248   1256     1
   1248   1273     1
   1248   1274     1
   1249   1251     1
   1249   1254     1
   1249   1272     1
   1249   1261     1
   1249   1262     1
   1250   1251     1
   1250   1254     1
   1250   1272     1
   1250   1261     1
   1250   1262     1
   1251   1255     1
   1251   1256     1
   1251   1270     1
   1251   1271     1
   1252   1254     1
   1252   1269     1
   1252   1264     1
   1252   1265     1
   1253   1254     1
   1253   1269     1
   1253   1264     1
   1253   1265     1
   1254   1267     1
   1254   1268     1
   1255   1266     1
   1255   1258     1
   1255   1259     1
   1256   1266     1
   1256   1258     1
   1256   1259     1
   1258   1275     1
   1258   1267     1
   1258   1268     1
   1259   1275     1
   1259   1267     1
   1259   1268     1
   1261   2609     1
   1261   1273     1
   1261   1274     1
   1262   2609     1
   1262   1273     1
   1262   1274     1
   1264   2580     1
   1264   1270     1
   1264   1271     1
   1265   2580     1
   1265   1270     1
   1265   1271     1
   1269   2572     1
   1269   2573     1
   1270   2571     1
   1271   2571     1
   1272   2601     1
   1272   2602     1
   1273   2600     1
   1274   2600     1
   1276   1290     1
   1276   1291     1
   1276   1293     1
   1276   1294     1
   1276   1287     1
   1276   1288     1
   1277   1281     1
   1277   1282     1
   1277   1284     1
   1277   1285     1
   1277   1302     1
   1277   1303     1
   1278   1280     1
   1278   1283     1
   1278   1301     1
   1278   1290     1
   1278   1291     1
   1279   1280     1
   1279   1283     1
   1279   1301     1
   1279   1290     1
   1279   1291     1
   1280   1284     1
   1280   1285     1
   1280   1299     1
   1280   1300     1
   1281   1283     1
   1281   1298     1
   1281   1293     1
   1281   1294     1
   1282   1283     1
   1282   1298     1
   1282   1293     1
   1282   1294     1
   1283   1296     1
   1283   1297     1
   1284   1295     1
   1284   1287     1
   1284   1288     1
   1285   1295     1
   1285   1287     1
   1285   1288     1
   1287   1304     1
   1287   1296     1
   1287   1297     1
   1288   1304     1
   1288   1296     1
   1288   1297     1
   1290   2667     1
   1290   1302     1
   1290   1303     1
   1291   2667     1
   1291   1302     1
   1291   1303     1
   1293   2638     1
   1293   1299     1
   1293   1300     1
   1294   2638     1
   1294   1299     1
   1294   1300     1
   1298   2630     1
   1298   2631     1
   1299   2629     1
   1300   2629     1
   1301   2659     1
   1301   2660     1
   1302   2658     1
   1303   2658     1
   1305   1319     1
   1305   1320     1
   1305   1322     1
   1305   1323     1
   1305   1316     1
   1305   1317     1
   1306   1310     1
   1306   1311     1
   1306   1313     1
   1306   1314     1
   1306   1331     1
   1306   1332     1
   1307   1309     1
   1307   1312     1
   1307   1330     1
   1307   1319     1
   1307   1320     1
   1308   1309     1
   1308   1312     1
   1308   1330     1
   1308   1319     1
   1308   1320     1
   1309   1313     1
   1309   1314     1
   1309   1328     1
   1309   1329     1
   1310   1312     1
   1310   1327     1
   1310   1322     1
   1310   1323     1
   1311   1312     1
   1311   1327     1
   1311   1322     1
   1311   1323     1
   1312   1325     1
   1312   1326     1
   1313   1324     1
   1313   1316     1
   1313   1317     1
   1314   1324     1
   1314   1316     1
   1314   1317     1
   1316   1333     1
   1316   1325     1
   1316   1326     1
   1317   1333     1
   1317   1325     1
   1317   1326     1
   1319   2725     1
   1319   1331     1
   1319   1332     1
   1320   2725     1
   1320   1331     1
   1320   1332     1
   1322   2696     1
   1322   1328     1
   1322   1329     1
   1323   2696     1
   1323   1328     1
   1323   1329     1
   1327   2688     1
   1327   2689     1
   1328   2687     1
   1329   2687     1
   1330   2717     1
   1330   2718     1
   1331   2716     1
   1332   2716     1
   1334   1348     1
   1334   1349     1
   1334   1351     1
   1334   1352     1
   1334   1345     1
   1334   1346     1
   1335   1339     1
   1335   1340     1
   1335   1342     1
   1335   1343     1
   1335   1360     1
   1335   1361     1
   1336   1338     1
   1336   1341     1
   1336   1359     1
   1336   1348     1
   1336   1349     1
   1337   1338     1
   1337   1341     1
   1337   1359     1
   1337   1348     1
   1337   1349     1
   1338   1342     1
   1338   1343     1
   1338   1357     1
   1338   1358     1
   1339   1341     1
   1339   1356     1
   1339   1351     1
   1339   1352     1
   1340   1341     1
   1340   1356     1
   1340   1351     1
   1340   1352     1
   1341   1354     1
   1341   1355     1
   1342   1353     1
   1342   1345     1
   1342   1346     1
   1343   1353     1
   1343   1345     1
   1343   1346     1
   1345   1362     1
   1345   1354     1
   1345   1355     1
   1346   1362     1
   1346   1354     1
   1346   1355     1
   1348   2783     1
   1348   1360     1
   1348   1361     1
   1349   2783     1
   1349   1360     1
   1349   1361     1
   1351   2754     1
   1351   1357     1
   1351   1358     1
   1352   2754     1
   1352   1357     1
   1352   1358     1
   1356   2746     1
   1356   2747     1
   1357   2745     1
   1358   2745     1
   1359   2775     1
   1359   2776     1
   1360   2774     1
   1361   2774     1
   1363   1377     1
   1363   1378     1
   1363   1380     1
   1363   1381     1
   1363   1374     1
   1363   1375     1
   1364   1368     1
   1364   1369     1
   1364   1371     1
   1364   1372     1
   1364   1389     1
   1364   1390     1
   1365   1367     1
   1365   1370     1
   1365   1388     1
   1365   1377     1
   1365   1378     1
   1366   1367     1
   1366   1370     1
   1366   1388     1
   1366   1377     1
   1366   1378     1
   1367   1371     1
   1367   1372     1
   1367   1386     1
   1367   1387     1
   1368   1370     1
   1368   1385     1
   1368   1380     1
   1368   1381     1
   1369   1370     1
   1369   1385     1
   1369   1380     1
   1369   1381     1
   1370   1383     1
   1370   1384     1
   1371   1382     1
   1371   1374     1
   1371   1375     1
   1372   1382     1
   1372   1374     1
   1372   1375     1
   1374   1391     1
   1374   1383     1
   1374   1384     1
   1375   1391     1
   1375   1383     1
   1375   1384     1
   1377   2841     1
   1377   1389     1
   1377   1390     1
   1378   2841     1
   1378   1389     1
   1378   1390     1
   1380   2812     1
   1380   1386     1
   1380   1387     1
   1381   2812     1
   1381   1386     1
   1381   1387     1
   1385   2804     1
   1385   2805     1
   1386   2803     1
   1387   2803     1
   1388   2833     1
   1388   2834     1
   1389   2832     1
   1390   2832     1
   1392   1406     1
   1392   1407     1
   1392   1409     1
   1392   1410     1
   1392   1403     1
   1392   1404     1
   1393   1397     1
   1393   1398     1
   1393   1400     1
   1393   1401     1
   1393   1418     1
   1393   1419     1
   1394   1396     1
   1394   1399     1
   1394   1417     1
   1394   1406     1
   1394   1407     1
   1395   1396     1
   1395   1399     1
   1395   1417     1
   1395   1406     1
   1395   1407     1
   1396   1400     1
   1396   1401     1
   1396   1415     1
   1396   1416     1
   1397   1399     1
   1397   1414     1
   1397   1409     1
   1397   1410     1
   1398   1399     1
   1398   1414     1
   1398   1409     1
   1398   1410     1
   1399   1412     1
   1399   1413     1
   1400   1411     1
   1400   1403     1
   1400   1404     1
   1401   1411     1
   1401   1403     1
   1401   1404     1
   1403   1420     1
   1403   1412     1
   1403   1413     1
   1404   1420     1
   1404   1412     1
   1404   1413     1
   1406   2899     1
   1406   1418     1
   1406   1419     1
   1407   2899     1
   1407   1418     1
   1407   1419     1
   1409   2870     1
   1409   1415     1
   1409   1416     1
   1410   2870     1
   1410   1415     1
   1410   1416     1
   1414   2862     1
   1414   2863     1
   1415   2861     1
   1416   2861     1
   1417   2891     1
   1417   2892     1
   1418   2890     1
   1419   2890     1
   1421   1435     1
   1421   1436     1
   1421   1438     1
   1421   1439     1
   1421   1432     1
   1421   1433     1
   1422   1426     1
   1422   1427     1
   1422   1429     1
   1422   1430     1
   1422   1447     1
   1422   1448     1
   1423   1425     1
   1423   1428     1
   1423   1446     1
   1423   1435     1
   1423   1436     1
   1424   1425     1
   1424   1428     1
   1424   1446     1
   1424   1435     1
   1424   1436     1
   1425   1429     1
   1425   1430     1
   1425   1444     1
   1425   1445     1
   1426   1428     1
   1426   1443     1
   1426   1438     1
   1426   1439     1
   1427   1428     1
   1427   1443     1
   1427   1438     1
   1427   1439     1
   1428   1441     1
   1428   1442     1
   1429   1440     1
   1429   1432     1
   1429   1433     1
   1430   1440     1
   1430   1432     1
   1430   1433     1
   1432   1449     1
   1432   1441     1
   1432   1442     1
   1433   1449     1
   1433   1441     1
   1433   1442     1
   1435   2957     1
   1435   1447     1
   1435   1448     1
   1436   2957     1
   1436   1447     1
   1436   1448     1
   1438   2928     1
   1438   1444     1
   1438   1445     1
   1439   2928     1
   1439   1444     1
   1439   1445     1
   1443   2920     1
   1443   2921     1
   1444   2919     1
   1445   2919     1
   1446   2949     1
   1446   2950     1
   1447   2948     1
   1448   2948     1
   1450   1464     1
   1450   1465     1
   1450   1467     1
   1450   1468     1
   1450   1461     1
   1450   1462     1
   1451   1455     1
   1451   1456     1
   1451   1458     1
   1451   1459     1
   1451   1476     1
   1451   1477     1
   1452   1454     1
   1452   1457     1
   1452   1475     1
   1452   1464     1
   1452   1465     1
   1453   1454     1
   1453   1457     1
   1453   1475     1
   1453   1464     1
   1453   1465     1
   1454   1458     1
   1454   1459     1
   1454   1473     1
   1454   1474     1
   1455   1457     1
   1455   1472     1
   1455   1467     1
   1455   1468     1
   1456   1457     1
   1456   1472     1
   1456   1467     1
   1456   1468     1
   1457   1470     1
   1457   1471     1
   1458   1469     1
   1458   1461     1
   1458   1462     1
   1459   1469     1
   1459   1461     1
   1459   1462     1
   1461   1478     1
   1461   1470     1
   1461   1471     1
   1462   1478     1
   1462   1470     1
   1462   1471     1
   1464   3015     1
   1464   1476     1
   1464   1477     1
   1465   3015     1
   1465   1476     1
   1465   1477     1
   1467   2986     1
   1467   1473     1
   1467   1474     1
   1468   2986     1
   1468   1473     1
   1468   1474     1
   1472   2978     1
   1472   2979     1
   1473   2977     1
   1474   2977     1
   1475   3007     1
   1475   3008     1
   1476   3006     1
   1477   3006     1
   1479   1493     1
   1479   1494     1
   1479   1496     1
   1479   1497     1
   1479   1490     1
   1479   1491     1
   1480   1484     1
   1480   1485     1
   1480   1487     1
   1480   1488     1
   1480   1505     1
   1480   1506     1
   1481   1483     1
   1481   1486     1
   1481   1504     1
   1481   1493     1
   1481   1494     1
   1482   1483     1
   1482   1486     1
   1482   1504     1
   1482   1493     1
   1482   1494     1
   1483   1487     1
   1483   1488     1
   1483   1502     1
   1483   1503     1
   1484   1486     1
   1484   1501     1
   1484   1496     1
   1484   1497     1
   1485   1486     1
   1485   1501     1
   1485   1496     1
   1485   1497     1
   1486   1499     1
   1486   1500     1
   1487   1498     1
   1487   1490     1
   1487   1491     1
   1488   1498     1
   1488   1490     1
   1488   1491     1
   1490   1507     1
   1490   1499     1
   1490   1500     1
   1491   1507     1
   1491   1499     1
   1491   1500     1
   1493   3073     1
   1493   1505     1
   1493   1506     1
   1494   3073     1
   1494   1505     1
   1494   1506     1
   1496   3044     1
   1496   1502     1
   1496   1503     1
   1497   3044     1
   1497   1502     1
   1497   1503     1
   1501   3036     1
   1501   3037     1
   1502   3035     1
   1503   3035     1
   1504   3065     1
   1504   3066     1
   1505   3064     1
   1506   3064     1
   1508   1522     1
   1508   1523     1
   1508   1525     1
   1508   1526     1
   1508   1519     1
   1508   1520     1
   1509   1513     1
   1509   1514     1
   1509   1516     1
   1509   1517     1
   1509   1534     1
   1509   1535     1
   1510   1512     1
   1510   1515     1
   1510   1533     1
   1510   1522     1
   1510   1523     1
   1511   1512     1
   1511   1515     1
   1511   1533     1
   1511   1522     1
   1511   1523     1
   1512   1516     1
   1512   1517     1
   1512   1531     1
   1512   1532     1
   1513   1515     1
   1513   1530     1
   1513   1525     1
   1513   1526     1
   1514   1515     1
   1514   1530     1
   1514   1525     1
   1514   1526     1
   1515   1528     1
   1515   1529     1
   1516   1527     1
   1516   1519     1
   1516   1520     1
   1517   1527     1
   1517   1519     1
   1517   1520     1
   1519   1536     1
   1519   1528     1
   1519   1529     1
   1520   1536     1
   1520   1528     1
   1520   1529     1
   1522   3131     1
   1522   1534     1
   1522   1535     1
   1523   3131     1
   1523   1534     1
   1523   1535     1
   1525   3102     1
   1525   1531     1
   1525   1532     1
   1526   3102     1
   1526   1531     1
   1526   1532     1
   1530   3094     1
   1530   3095     1
   1531   3093     1
   1532   3093     1
   1533   3123     1
   1533   3124     1
   1534   3122     1
   1535   3122     1
   1537   1551     1
   1537   1552     1
   1537   1554     1
   1537   1555     1
   1537   1548     1
   1537   1549     1
   1538   1542     1
   1538   1543     1
   1538   1545     1
   1538   1546     1
   1538   1563     1
   1538   1564     1
   1539   1541     1
   1539   1544     1
   1539   1562     1
   1539   1551     1
   1539   1552     1
   1540   1541     1
   1540   1544     1
   1540   1562     1
   1540   1551     1
   1540   1552     1
   1541   1545     1
   1541   1546     1
   1541   1560     1
   1541   1561     1
   1542   1544     1
   1542   1559     1
   1542   1554     1
   1542   1555     1
   1543   1544     1
   1543   1559     1
   1543   1554     1
   1543   1555     1
   1544   1557     1
   1544   1558     1
   1545   1556     1
   1545   1548     1
   1545   1549     1
   1546   1556     1
   1546   1548     1
   1546   1549     1
   1548   1565     1
   1548   1557     1
   1548   1558     1
   1549   1565     1
   1549   1557     1
   1549   1558     1
   1551   3189     1
   1551   1563     1
   1551   1564     1
   1552   3189     1
   1552   1563     1
   1552   1564     1
   1554   3160     1
   1554   1560     1
   1554   1561     1
   1555   3160     1
   1555   1560     1
   1555   1561     1
   1559   3152     1
   1559   3153     1
   1560   3151     1
   1561   3151     1
   1562   3181     1
   1562   3182     1
   1563   3180     1
   1564   3180     1
   1566   1580     1
   1566   1581     1
   1566   1583     1
   1566   1584     1
   1566   1577     1
   1566   1578     1
   1567   1571     1
   1567   1572     1
   1567   1574     1
   1567   1575     1
   1567   1592     1
   1567   1593     1
   1568   1570     1
   1568   1573     1
   1568   1591     1
   1568   1580     1
   1568   1581     1
   1569   1570     1
   1569   1573     1
   1569   1591     1
   1569   1580     1
   1569   1581     1
   1570   1574     1
   1570   1575     1
   1570   1589     1
   1570   1590     1
   1571   1573     1
   1571   1588     1
   1571   1583     1
   1571   1584     1
   1572   1573     1
   1572   1588     1
   1572   1583     1
   1572   1584     1
   1573   1586     1
   1573   1587     1
   1574   1585     1
   1574   1577     1
   1574   1578     1
   1575   1585     1
   1575   1577     1
   1575   1578     1
   1577   1594     1
   1577   1586     1
   1577   1587     1
   1578   1594     1
   1578   1586     1
   1578   1587     1
   1580   3247     1
   1580   1592     1
   1580   1593     1
   1581   3247     1
   1581   1592     1
   1581   1593     1
   1583   3218     1
   1583   1589     1
   1583   1590     1
   1584   3218     1
   1584   1589     1
   1584   1590     1
   1588   3210     1
   1588   3211     1
   1589   3209     1
   1590   3209     1
   1591   3239     1
   1591   3240     1
   1592   3238     1
   1593   3238     1
   1595   1609     1
   1595   1610     1
   1595   1612     1
   1595   1613     1
   1595   1606     1
   1595   1607     1
   1596   1600     1
   1596   1601     1
   1596   1603     1
   1596   1604     1
   1596   1621     1
   1596   1622     1
   1597   1599     1
   1597   1602     1
   1597   1620     1
   1597   1609     1
   1597   1610     1
   1598   1599     1
   1598   1602     1
   1598   1620     1
   1598   1609     1
   1598   1610     1
   1599   1603     1
   1599   1604     1
   1599   1618     1
   1599   1619     1
   1600   1602     1
   1600   1617     1
   1600   1612     1
   1600   1613     1
   1601   1602     1
   1601   1617     1
   1601   1612     1
   1601   1613     1
   1602   1615     1
   1602   1616     1
   1603   1614     1
   1603   1606     1
   1603   1607     1
   1604   1614     1
   1604   1606     1
   1604   1607     1
   1606   1623     1
   1606   1615     1
   1606   1616     1
   1607   1623     1
   1607   1615     1
   1607   1616     1
   1609   3305     1
   1609   1621     1
   1609   1622     1
   1610   3305     1
   1610   1621     1
   1610   1622     1
   1612   3276     1
   1612   1618     1
   1612   1619     1
   1613   3276     1
   1613   1618     1
   1613   1619     1
   1617   3268     1
   1617   3269     1
   1618   3267     1
   1619   3267     1
   1620   3297     1
   1620   3298     1
   1621   3296     1
   1622   3296     1
   1624   1638     1
   1624   1639     1
   1624   1641     1
   1624   1642     1
   1624   1635     1
   1624   1636     1
   1625   1629     1
   1625   1630     1
   1625   1632     1
   1625   1633     1
   1625   1650     1
   1625   1651     1
   1626   1628     1
   1626   1631     1
   1626   1649     1
   1626   1638     1
   1626   1639     1
   1627   1628     1
   1627   1631     1
   1627   1649     1
   1627   1638     1
   1627   1639     1
   1628   1632     1
   1628   1633     1
   1628   1647     1
   1628   1648     1
   1629   1631     1
   1629   1646     1
   1629   1641     1
   1629   1642     1
   1630   1631     1
   1630   1646     1
   1630   1641     1
   1630   1642     1
   1631   1644     1
   1631   1645     1
   1632   1643     1
   1632   1635     1
   1632   1636     1
   1633   1643     1
   1633   1635     1
   1633   1636     1
   1635   1652     1
   1635   1644     1
   1635   1645     1
   1636   1652     1
   1636   1644     1
   1636   1645     1
   1638   3363     1
   1638   1650     1
   1638   1651     1
   1639   3363     1
   1639   1650     1
   1639   1651     1
   1641   3334     1
   1641   1647     1
   1641   1648     1
   1642   3334     1
   1642   1647     1
   1642   1648     1
   1646   3326     1
   1646   3327     1
   1647   3325     1
   1648   3325     1
   1649   3355     1
   1649   3356     1
   1650   3354     1
   1651   3354     1
   1653   1667     1
   1653   1668     1
   1653   1670     1
   1653   1671     1
   1653   1664     1
   1653   1665     1
   1654   1658     1
   1654   1659     1
   1654   1661     1
   1654   1662     1
   1654   1679     1
   1654   1680     1
   1655   1657     1
   1655   1660     1
   1655   1678     1
   1655   1667     1
   1655   1668     1
   1656   1657     1
   1656   1660     1
   1656   1678     1
   1656   1667     1
   1656   1668     1
   1657   1661     1
   1657   1662     1
   1657   1676     1
   1657   1677     1
   1658   1660     1
   1658   1675     1
   1658   1670     1
   1658   1671     1
   1659   1660     1
   1659   1675     1
   1659   1670     1
   1659   1671     1
   1660   1673     1
   1660   1674     1
   1661   1672     1
   1661   1664     1
   1661   1665     1
   1662   1672     1
   1662   1664     1
   1662   1665     1
   1664   1681     1
   1664   1673     1
   1664   1674     1
   1665   1681     1
   1665   1673     1
   1665   1674     1
   1667   3421     1
   1667   1679     1
   1667   1680     1
   1668   3421     1
   1668   1679     1
   1668   1680     1
   1670   3392     1
   1670   1676     1
   1670   1677     1
   1671   3392     1
   1671   1676     1
   1671   1677     1
   1675   3384     1
   1675   3385     1
   1676   3383     1
   1677   3383     1
   1678   3413     1
   1678   3414     1
   1679   3412     1
   1680   3412     1
   1682   1696     1
   1682   1697     1
   1682   1699     1
   1682   1700     1
   1682   1693     1
   1682   1694     1
   1683   1687     1
   1683   1688     1
   1683   1690     1
   1683   1691     1
   1683   1708     1
   1683   1709     1
   1684   1686     1
   1684   1689     1
   1684   1707     1
   1684   1696     1
   1684   1697     1
   1685   1686     1
   1685   1689     1
   1685   1707     1
   1685   1696     1
   1685   1697     1
   1686   1690     1
   1686   1691     1
   1686   1705     1
   1686   1706     1
   1687   1689     1
   1687   1704     1
   1687   1699     1
   1687   1700     1
   1688   1689     1
   1688   1704     1
   1688   1699     1
   1688   1700     1
   1689   1702     1
   1689   1703     1
   1690   1701     1
   1690   1693     1
   1690   1694     1
   1691   1701     1
   1691   1693     1
   1691   1694     1
   1693   1710     1
   1693   1702     1
   1693   1703     1
   1694   1710     1
   1694   1702     1
   1694   1703     1
   1696   3479     1
   1696   1708     1
   1696   1709     1
   1697   3479     1
   1697   1708     1
   1697   1709     1
   1699   3450     1
   1699   1705     1
   1699   1706     1
   1700   3450     1
   1700   1705     1
   1700   1706     1
   1704   3442     1
   1704   3443     1
   1705   3441     1
   1706   3441     1
   1707   3471     1
   1707   3472     1
   1708   3470     1
   1709   3470     1
   1711   1725     1
   1711   1726     1
   1711   1728     1
   1711   1729     1
   1711   1722     1
   1711   1723     1
   1712   1716     1
   1712   1717     1
   1712   1719     1
   1712   1720     1
   1712   1737     1
   1712   1738     1
   1713   1715     1
   1713   1718     1
   1713   1736     1
   1713   1725     1
   1713   1726     1
   1714   1715     1
   1714   1718     1
   1714   1736     1
   1714   1725     1
   1714   1726     1
   1715   1719     1
   1715   1720     1
   1715   1734     1
   1715   1735     1
   1716   1718     1
   1716   1733     1
   1716   1728     1
   1716   1729     1
   1717   1718     1
   1717   1733     1
   1717   1728     1
   1717   1729     1
   1718   1731     1
   1718   1732     1
   1719   1730     1
   1719   1722     1
   1719   1723     1
   1720   1730     1
   1720   1722     1
   1720   1723     1
   1722   1739     1
   1722   1731     1
   1722   1732     1
   1723   1739     1
   1723   1731     1
   1723   1732     1
   1725   3537     1
   1725   1737     1
   1725   1738     1
   1726   3537     1
   1726   1737     1
   1726   1738     1
   1728   3508     1
   1728   1734     1
   1728   1735     1
   1729   3508     1
   1729   1734     1
   1729   1735     1
   1733   3500     1
   1733   3501     1
   1734   3499     1
   1735   3499     1
   1736   3529     1
   1736   3530     1
   1737   3528     1
   1738   3528     1
   1740   1754     1
   1740   1755     1
   1740   1757     1
   1740   1758     1
   1740   1751     1
   1740   1752     1
   1741   1745     1
   1741   1746     1
   1741   1748     1
   1741   1749     1
   1741   1766     1
   1741   1767     1
   1742   1744     1
   1742   1747     1
   1742   1765     1
   1742   1754     1
   1742   1755     1
   1743   1744     1
   1743   1747     1
   1743   1765     1
   1743   1754     1
   1743   1755     1
   1744   1748     1
   1744   1749     1
   1744   1763     1
   1744   1764     1
   1745   1747     1
   1745   1762     1
   1745   1757     1
   1745   1758     1
   1746   1747     1
   1746   1762     1
   1746   1757     1
   1746   1758     1
   1747   1760     1
   1747   1761     1
   1748   1759     1
   1748   1751     1
   1748   1752     1
   1749   1759     1
   1749   1751     1
   1749   1752     1
   1751   1768     1
   1751   1760     1
   1751   1761     1
   1752   1768     1
   1752   1760     1
   1752   1761     1
   1754   3595     1
   1754   1766     1
   1754   1767     1
   1755   3595     1
   1755   1766     1
   1755   1767     1
   1757   3566     1
   1757   1763     1
   1757   1764     1
   1758   3566     1
   1758   1763     1
   1758   1764     1
   1762   3558     1
   1762   3559     1
   1763   3557     1
   1764   3557     1
   1765   3587     1
   1765   3588     1
   1766   3586     1
   1767   3586     1
   1769   1783     1
   1769   1784     1
   1769   1786     1
   1769   1787     1
   1769   1780     1
   1769   1781     1
   1770   1774     1
   1770   1775     1
   1770   1777     1
   1770   1778     1
   1770   1795     1
   1770   1796     1
   1771   1773     1
   1771   1776     1
   1771   1794     1
   1771   1783     1
   1771   1784     1
   1772   1773     1
   1772   1776     1
   1772   1794     1
   1772   1783     1
   1772   1784     1
   1773   1777     1
   1773   1778     1
   1773   1792     1
   1773   1793     1
   1774   1776     1
   1774   1791     1
   1774   1786     1
   1774   1787     1
   1775   1776     1
   1775   1791     1
   1775   1786     1
   1775   1787     1
   1776   1789     1
   1776   1790     1
   1777   1788     1
   1777   1780     1
   1777   1781     1
   1778   1788     1
   1778   1780     1
   1778   1781     1
   1780   1797     1
   1780   1789     1
   1780   1790     1
   1781   1797     1
   1781   1789     1
   1781   1790     1
   1783   3653     1
   1783   1795     1
   1783   1796     1
   1784   3653     1
   1784   1795     1
   1784   1796     1
   1786   3624     1
   1786   1792     1
   1786   1793     1
   1787   3624     1
   1787   1792     1
   1787   1793     1
   1791   3616     1
   1791   3617     1
   1792   3615     1
   1793   3615     1
   1794   3645     1
   1794   3646     1
   1795   3644     1
   1796   3644     1
   1798   1812     1
   1798   1813     1
   1798   1815     1
   1798   1816     1
   1798   1809     1
   1798   1810     1
   1799   1803     1
   1799   1804     1
   1799   1806     1
   1799   1807     1
   1799   1824     1
   1799   1825     1
   1800   1802     1
   1800   1805     1
   1800   1823     1
   1800   1812     1
   1800   1813     1
   1801   1802     1
   1801   1805     1
   1801   1823     1
   1801   1812     1
   1801   1813     1
   1802   1806     1
   1802   1807     1
   1802   1821     1
   1802   1822     1
   1803   1805     1
   1803   1820     1
   1803   1815     1
   1803   1816     1
   1804   1805     1
   1804   1820     1
   1804   1815     1
   1804   1816     1
   1805   1818     1
   1805   1819     1
   1806   1817     1
   1806   1809     1
   1806   1810     1
   1807   1817     1
   1807   1809     1
   1807   1810     1
   1809   1826     1
   1809   1818     1
   1809   1819     1
   1810   1826     1
   1810   1818     1
   1810   1819     1
   1812   3715     1
   1812   1824     1
   1812   1825     1
   1813   3715     1
   1813   1824     1
   1813   1825     1
   1815   3684     1
   1815   1821     1
   1815   1822     1
   1816   3684     1
   1816   1821     1
   1816   1822     1
   1820   3655     1
   1820   3656     1
   1821   3654     1
   1822   3654     1
   1823   3686     1
   1823   3687     1
   1824   3685     1
   1825   3685     1
   1827   1841     1
   1827   1842     1
   1827   1844     1
   1827   1845     1
   1827   1838     1
   1827   1839     1
   1828   1832     1
   1828   1833     1
   1828   1835     1
   1828   1836     1
   1828   1853     1
   1828   1854     1
   1829   1831     1
   1829   1834     1
   1829   1852     1
   1829   1841     1
   1829   1842     1
   1830   1831     1
   1830   1834     1
   1830   1852     1
   1830   1841     1
   1830   1842     1
   1831   1835     1
   1831   1836     1
   1831   1850     1
   1831   1851     1
   1832   1834     1
   1832   1849     1
   1832   1844     1
   1832   1845     1
   1833   1834     1
   1833   1849     1
   1833   1844     1
   1833   1845     1
   1834   1847     1
   1834   1848     1
   1835   1846     1
   1835   1838     1
   1835   1839     1
   1836   1846     1
   1836   1838     1
   1836   1839     1
   1838   1855     1
   1838   1847     1
   1838   1848     1
   1839   1855     1
   1839   1847     1
   1839   1848     1
   1841   3777     1
   1841   1853     1
   1841   1854     1
   1842   3777     1
   1842   1853     1
   1842   1854     1
   1844   3746     1
   1844   1850     1
   1844   1851     1
   1845   3746     1
   1845   1850     1
   1845   1851     1
   1849   3717     1
   1849   3718     1
   1850   3716     1
   1851   3716     1
   1852   3748     1
   1852   3749     1
   1853   3747     1
   1854   3747     1
   1856   1870     1
   1856   1871     1
   1856   1873     1
   1856   1874     1
   1856   1867     1
   1856   1868     1
   1857   1861     1
   1857   1862     1
   1857   1864     1
   1857   1865     1
   1857   1882     1
   1857   1883     1
   1858   1860     1
   1858   1863     1
   1858   1881     1
   1858   1870     1
   1858   1871     1
   1859   1860     1
   1859   1863     1
   1859   1881     1
   1859   1870     1
   1859   1871     1
   1860   1864     1
   1860   1865     1
   1860   1879     1
   1860   1880     1
   1861   1863     1
   1861   1878     1
   1861   1873     1
   1861   1874     1
   1862   1863     1
   1862   1878     1
   1862   1873     1
   1862   1874     1
   1863   1876     1
   1863   1877     1
   1864   1875     1
   1864   1867     1
   1864   1868     1
   1865   1875     1
   1865   1867     1
   1865   1868     1
   1867   1884     1
   1867   1876     1
   1867   1877     1
   1868   1884     1
   1868   1876     1
   1868   1877     1
   1870   3839     1
   1870   1882     1
   1870   1883     1
   1871   3839     1
   1871   1882     1
   1871   1883     1
   1873   3808     1
   1873   1879     1
   1873   1880     1
   1874   3808     1
   1874   1879     1
   1874   1880     1
   1878   3779     1
   1878   3780     1
   1879   3778     1
   1880   3778     1
   1881   3810     1
   1881   3811     1
   1882   3809     1
   1883   3809     1
   1885   1899     1
   1885   1900     1
   1885   1902     1
   1885   1903     1
   1885   1896     1
   1885   1897     1
   1886   1890     1
   1886   1891     1
   1886   1893     1
   1886   1894     1
   1886   1911     1
   1886   1912     1
   1887   1889     1
   1887   1892     1
   1887   1910     1
   1887   1899     1
   1887   1900     1
   1888   1889     1
   1888   1892     1
   1888   1910     1
   1888   1899     1
   1888   1900     1
   1889   1893     1
   1889   1894     1
   1889   1908     1
   1889   1909     1
   1890   1892     1
   1890   1907     1
   1890   1902     1
   1890   1903     1
   1891   1892     1
   1891   1907     1
   1891   1902     1
   1891   1903     1
   1892   1905     1
   1892   1906     1
   1893   1904     1
   1893   1896     1
   1893   1897     1
   1894   1904     1
   1894   1896     1
   1894   1897     1
   1896   1913     1
   1896   1905     1
   1896   1906     1
   1897   1913     1
   1897   1905     1
   1897   1906     1
   1899   3901     1
   1899   1911     1
   1899   1912     1
   1900   3901     1
   1900   1911     1
   1900   1912     1
   1902   3870     1
   1902   1908     1
   1902   1909     1
   1903   3870     1
   1903   1908     1
   1903   1909     1
   1907   3841     1
   1907   3842     1
   1908   3840     1
   1909   3840     1
   1910   3872     1
   1910   3873     1
   1911   3871     1
   1912   3871     1
   1914   1928     1
   1914   1929     1
   1914   1931     1
   1914   1932     1
   1914   1925     1
   1914   1926     1
   1915   1919     1
   1915   1920     1
   1915   1922     1
   1915   1923     1
   1915   1940     1
   1915   1941     1
   1916   1918     1
   1916   1921     1
   1916   1939     1
   1916   1928     1
   1916   1929     1
   1917   1918     1
   1917   1921     1
   1917   1939     1
   1917   1928     1
   1917   1929     1
   1918   1922     1
   1918   1923     1
   1918   1937     1
   1918   1938     1
   1919   1921     1
   1919   1936     1
   1919   1931     1
   1919   1932     1
   1920   1921     1
   1920   1936     1
   1920   1931     1
   1920   1932     1
   1921   1934     1
   1921   1935     1
   1922   1933     1
   1922   1925     1
   1922   1926     1
   1923   1933     1
   1923   1925     1
   1923   1926     1
   1925   1942     1
   1925   1934     1
   1925   1935     1
   1926   1942     1
   1926   1934     1
   1926   1935     1
   1928   3963     1
   1928   1940     1
   1928   1941     1
   1929   3963     1
   1929   1940     1
   1929   1941     1
   1931   3932     1
   1931   1937     1
   1931   1938     1
   1932   3932     1
   1932   1937     1
   1932   1938     1
   1936   3903     1
   1936   3904     1
   1937   3902     1
   1938   3902     1
   1939   3934     1
   1939   3935     1
   1940   3933     1
   1941   3933     1
   1943   1957     1
   1943   1958     1
   1943   1960     1
   1943   1961     1
   1943   1954     1
   1943   1955     1
   1944   1948     1
   1944   1949     1
   1944   1951     1
   1944   1952     1
   1944   1969     1
   1944   1970     1
   1945   1947     1
   1945   1950     1
   1945   1968     1
   1945   1957     1
   1945   1958     1
   1946   1947     1
   1946   1950     1
   1946   1968     1
   1946   1957     1
   1946   1958     1
   1947   1951     1
   1947   1952     1
   1947   1966     1
   1947   1967     1
   1948   1950     1
   1948   1965     1
   1948   1960     1
   1948   1961     1
   1949   1950     1
   1949   1965     1
   1949   1960     1
   1949   1961     1
   1950   1963     1
   1950   1964     1
   1951   1962     1
   1951   1954     1
   1951   1955     1
   1952   1962     1
   1952   1954     1
   1952   1955     1
   1954   1971     1
   1954   1963     1
   1954   1964     1
   1955   1971     1
   1955   1963     1
   1955   1964     1
   1957   4025     1
   1957   1969     1
   1957   1970     1
   1958   4025     1
   1958   1969     1
   1958   1970     1
   1960   3994     1
   1960   1966     1
   1960   1967     1
   1961   3994     1
   1961   1966     1
   1961   1967     1
   1965   3965     1
   1965   3966     1
   1966   3964     1
   1967   3964     1
   1968   3996     1
   1968   3997     1
   1969   3995     1
   1970   3995     1
   1972   1986     1
   1972   1987     1
   1972   1989     1
   1972   1990     1
   1972   1983     1
   1972   1984     1
   1973   1977     1
   1973   1978     1
   1973   1980     1
   1973   1981     1
   1973   1998     1
   1973   1999     1
   1974   1976     1
   1974   1979     1
   1974   1997     1
   1974   1986     1
   1974   1987     1
   1975   1976     1
   1975   1979     1
   1975   1997     1
   1975   1986     1
   1975   1987     1
   1976   1980     1
   1976   1981     1
   1976   1995     1
   1976   1996     1
   1977   1979     1
   1977   1994     1
   1977   1989     1
   1977   1990     1
   1978   1979     1
   1978   1994     1
   1978   1989     1
   1978   1990     1
   1979   1992     1
   1979   1993     1
   1980   1991     1
   1980   1983     1
   1980   1984     1
   1981   1991     1
   1981   1983     1
   1981   1984     1
   1983   2000     1
   1983   1992     1
   1983   1993     1
   1984   2000     1
   1984   1992     1
   1984   1993     1
   1986   4087     1
   1986   1998     1
   1986   1999     1
   1987   4087     1
   1987   1998     1
   1987   1999     1
   1989   4056     1
   1989   1995     1
   1989   1996     1
   1990   4056     1
   1990   1995     1
   1990   1996     1
   1994   4027     1
   1994   4028     1
   1995   4026     1
   1996   4026     1
   1997   4058     1
   1997   4059     1
   1998   4057     1
   1999   4057     1
   2001   2015     1
   2001   2016     1
   2001   2018     1
   2001   2019     1
   2001   2012     1
   2001   2013     1
   2002   2006     1
   2002   2007     1
   2002   2009     1
   2002   2010     1
   2002   2027     1
   2002   2028     1
   2003   2005     1
   2003   2008     1
   2003   2026     1
   2003   2015     1
   2003   2016     1
   2004   2005     1
   2004   2008     1
   2004   2026     1
   2004   2015     1
   2004   2016     1
   2005   2009     1
   2005   2010     1
   2005   2024     1
   2005   2025     1
   2006   2008     1
   2006   2023     1
   2006   2018     1
   2006   2019     1
   2007   2008     1
   2007   2023     1
   2007   2018     1
   2007   2019     1
   2008   2021     1
   2008   2022     1
   2009   2020     1
   2009   2012     1
   2009   2013     1
   2010   2020     1
   2010   2012     1
   2010   2013     1
   2012   2029     1
   2012   2021     1
   2012   2022     1
   2013   2029     1
   2013   2021     1
   2013   2022     1
   2015   4149     1
   2015   2027     1
   2015   2028     1
   2016   4149     1
   2016   2027     1
   2016   2028     1
   2018   4118     1
   2018   2024     1
   2018   2025     1
   2019   4118     1
   2019   2024     1
   2019   2025     1
   2023   4089     1
   2023   4090     1
   2024   4088     1
   2025   4088     1
   2026   4120     1
   2026   4121     1
   2027   4119     1
   2028   4119     1
   2030   2044     1
   2030   2045     1
   2030   2047     1
   2030   2048     1
   2030   2041     1
   2030   2042     1
   2031   2035     1
   2031   2036     1
   2031   2038     1
   2031   2039     1
   2031   2056     1
   2031   2057     1
   2032   2034     1
   2032   2037     1
   2032   2055     1
   2032   2044     1
   2032   2045     1
   2033   2034     1
   2033   2037     1
   2033   2055     1
   2033   2044     1
   2033   2045     1
   2034   2038     1
   2034   2039     1
   2034   2053     1
   2034   2054     1
   2035   2037     1
   2035   2052     1
   2035   2047     1
   2035   2048     1
   2036   2037     1
   2036   2052     1
   2036   2047     1
   2036   2048     1
   2037   2050     1
   2037   2051     1
   2038   2049     1
   2038   2041     1
   2038   2042     1
   2039   2049     1
   2039   2041     1
   2039   2042     1
   2041   2058     1
   2041   2050     1
   2041   2051     1
   2042   2058     1
   2042   2050     1
   2042   2051     1
   2044   4211     1
   2044   2056     1
   2044   2057     1
   2045   4211     1
   2045   2056     1
   2045   2057     1
   2047   4180     1
   2047   2053     1
   2047   2054     1
   2048   4180     1
   2048   2053     1
   2048   2054     1
   2052   4151     1
   2052   4152     1
   2053   4150     1
   2054   4150     1
   2055   4182     1
   2055   4183     1
   2056   4181     1
   2057   4181     1
   2059   2073     1
   2059   2074     1
   2059   2076     1
   2059   2077     1
   2059   2070     1
   2059   2071     1
   2060   2064     1
   2060   2065     1
   2060   2067     1
   2060   2068     1
   2060   2085     1
   2060   2086     1
   2061   2063     1
   2061   2066     1
   2061   2084     1
   2061   2073     1
   2061   2074     1
   2062   2063     1
   2062   2066     1
   2062   2084     1
   2062   2073     1
   2062   2074     1
   2063   2067     1
   2063   2068     1
   2063   2082     1
   2063   2083     1
   2064   2066     1
   2064   2081     1
   2064   2076     1
   2064   2077     1
   2065   2066     1
   2065   2081     1
   2065   2076     1
   2065   2077     1
   2066   2079     1
   2066   2080     1
   2067   2078     1
   2067   2070     1
   2067   2071     1
   2068   2078     1
   2068   2070     1
   2068   2071     1
   2070   2087     1
   2070   2079     1
   2070   2080     1
   2071   2087     1
   2071   2079     1
   2071   2080     1
   2073   4273     1
   2073   2085     1
   2073   2086     1
   2074   4273     1
   2074   2085     1
   2074   2086     1
   2076   4242     1
   2076   2082     1
   2076   2083     1
   2077   4242     1
   2077   2082     1
   2077   2083     1
   2081   4213     1
   2081   4214     1
   2082   4212     1
   2083   4212     1
   2084   4244     1
   2084   4245     1
   2085   4243     1
   2086   4243     1
   2088   2102     1
   2088   2103     1
   2088   2105     1
   2088   2106     1
   2088   2099     1
   2088   2100     1
   2089   2093     1
   2089   2094     1
   2089   2096     1
   2089   2097     1
   2089   2114     1
   2089   2115     1
   2090   2092     1
   2090   2095     1
   2090   2113     1
   2090   2102     1
   2090   2103     1
   2091   2092     1
   2091   2095     1
   2091   2113     1
   2091   2102     1
   2091   2103     1
   2092   2096     1
   2092   2097     1
   2092   2111     1
   2092   2112     1
   2093   2095     1
   2093   2110     1
   2093   2105     1
   2093   2106     1
   2094   2095     1
   2094   2110     1
   2094   2105     1
   2094   2106     1
   2095   2108     1
   2095   2109     1
   2096   2107     1
   2096   2099     1
   2096   2100     1
   2097   2107     1
   2097   2099     1
   2097   2100     1
   2099   2116     1
   2099   2108     1
   2099   2109     1
   2100   2116     1
   2100   2108     1
   2100   2109     1
   2102   4335     1
   2102   2114     1
   2102   2115     1
   2103   4335     1
   2103   2114     1
   2103   2115     1
   2105   4304     1
   2105   2111     1
   2105   2112     1
   2106   4304     1
   2106   2111     1
   2106   2112     1
   2110   4275     1
   2110   4276     1
   2111   4274     1
   2112   4274     1
   2113   4306     1
   2113   4307     1
   2114   4305     1
   2115   4305     1
   2117   2131     1
   2117   2132     1
   2117   2134     1
   2117   2135     1
   2117   2128     1
   2117   2129     1
   2118   2122     1
   2118   2123     1
   2118   2125     1
   2118   2126     1
   2118   2143     1
   2118   2144     1
   2119   2121     1
   2119   2124     1
   2119   2142     1
   2119   2131     1
   2119   2132     1
   2120   2121     1
   2120   2124     1
   2120   2142     1
   2120   2131     1
   2120   2132     1
   2121   2125     1
   2121   2126     1
   2121   2140     1
   2121   2141     1
   2122   2124     1
   2122   2139     1
   2122   2134     1
   2122   2135     1
   2123   2124     1
   2123   2139     1
   2123   2134     1
   2123   2135     1
   2124   2137     1
   2124   2138     1
   2125   2136     1
   2125   2128     1
   2125   2129     1
   2126   2136     1
   2126   2128     1
   2126   2129     1
   2128   2145     1
   2128   2137     1
   2128   2138     1
   2129   2145     1
   2129   2137     1
   2129   2138     1
   2131   4397     1
   2131   2143     1
   2131   2144     1
   2132   4397     1
   2132   2143     1
   2132   2144     1
   2134   4366     1
   2134   2140     1
   2134   2141     1
   2135   4366     1
   2135   2140     1
   2135   2141     1
   2139   4337     1
   2139   4338     1
   2140   4336     1
   2141   4336     1
   2142   4368     1
   2142   4369     1
   2143   4367     1
   2144   4367     1
   2146   2160     1
   2146   2161     1
   2146   2163     1
   2146   2164     1
   2146   2157     1
   2146   2158     1
   2147   2151     1
   2147   2152     1
   2147   2154     1
   2147   2155     1
   2147   2172     1
   2147   2173     1
   2148   2150     1
   2148   2153     1
   2148   2171     1
   2148   2160     1
   2148   2161     1
   2149   2150     1
   2149   2153     1
   2149   2171     1
   2149   2160     1
   2149   2161     1
   2150   2154     1
   2150   2155     1
   2150   2169     1
   2150   2170     1
   2151   2153     1
   2151   2168     1
   2151   2163     1
   2151   2164     1
   2152   2153     1
   2152   2168     1
   2152   2163     1
   2152   2164     1
   2153   2166     1
   2153   2167     1
   2154   2165     1
   2154   2157     1
   2154   2158     1
   2155   2165     1
   2155   2157     1
   2155   2158     1
   2157   2174     1
   2157   2166     1
   2157   2167     1
   2158   2174     1
   2158   2166     1
   2158   2167     1
   2160   4459     1
   2160   2172     1
   2160   2173     1
   2161   4459     1
   2161   2172     1
   2161   2173     1
   2163   4428     1
   2163   2169     1
   2163   2170     1
   2164   4428     1
   2164   2169     1
   2164   2170     1
   2168   4399     1
   2168   4400     1
   2169   4398     1
   2170   4398     1
   2171   4430     1
   2171   4431     1
   2172   4429     1
   2173   4429     1
   2175   2189     1
   2175   2190     1
   2175   2192     1
   2175   2193     1
   2175   2186     1
   2175   2187     1
   2176   2180     1
   2176   2181     1
   2176   2183     1
   2176   2184     1
   2176   2201     1
   2176   2202     1
   2177   2179     1
   2177   2182     1
   2177   2200     1
   2177   2189     1
   2177   2190     1
   2178   2179     1
   2178   2182     1
   2178   2200     1
   2178   2189     1
   2178   2190     1
   2179   2183     1
   2179   2184     1
   2179   2198     1
   2179   2199     1
   2180   2182     1
   2180   2197     1
   2180   2192     1
   2180   2193     1
   2181   2182     1
   2181   2197     1
   2181   2192     1
   2181   2193     1
   2182   2195     1
   2182   2196     1
   2183   2194     1
   2183   2186     1
   2183   2187     1
   2184   2194     1
   2184   2186     1
   2184   2187     1
   2186   2203     1
   2186   2195     1
   2186   2196     1
   2187   2203     1
   2187   2195     1
   2187   2196     1
   2189   4521     1
   2189   2201     1
   2189   2202     1
   2190   4521     1
   2190   2201     1
   2190   2202     1
   2192   4490     1
   2192   2198     1
   2192   2199     1
   2193   4490     1
   2193   2198     1
   2193   2199     1
   2197   4461     1
   2197   4462     1
   2198   4460     1
   2199   4460     1
   2200   4492     1
   2200   4493     1
   2201   4491     1
   2202   4491     1
   2204   2218     1
   2204   2219     1
   2204   2221     1
   2204   2222     1
   2204   2215     1
   2204   2216     1
   2205   2209     1
   2205   2210     1
   2205   2212     1
   2205   2213     1
   2205   2230     1
   2205   2231     1
   2206   2208     1
   2206   2211     1
   2206   2229     1
   2206   2218     1
   2206   2219     1
   2207   2208     1
   2207   2211     1
   2207   2229     1
   2207   2218     1
   2207   2219     1
   2208   2212     1
   2208   2213     1
   2208   2227     1
   2208   2228     1
   2209   2211     1
   2209   2226     1
   2209   2221     1
   2209   2222     1
   2210   2211     1
   2210   2226     1
   2210   2221     1
   2210   2222     1
   2211   2224     1
   2211   2225     1
   2212   2223     1
   2212   2215     1
   2212   2216     1
   2213   2223     1
   2213   2215     1
   2213   2216     1
   2215   2232     1
   2215   2224     1
   2215   2225     1
   2216   2232     1
   2216   2224     1
   2216   2225     1
   2218   4583     1
   2218   2230     1
   2218   2231     1
   2219   4583     1
   2219   2230     1
   2219   2231     1
   2221   4552     1
   2221   2227     1
   2221   2228     1
   2222   4552     1
   2222   2227     1
   2222   2228     1
   2226   4523     1
   2226   4524     1
   2227   4522     1
   2228   4522     1
   2229   4554     1
   2229   4555     1
   2230   4553     1
   2231   4553     1
   2233   2247     1
   2233   2248     1
   2233   2250     1
   2233   2251     1
   2233   2244     1
   2233   2245     1
   2234   2238     1
   2234   2239     1
   2234   2241     1
   2234   2242     1
   2234   2259     1
   2234   2260     1
   2235   2237     1
   2235   2240     1
   2235   2258     1
   2235   2247     1
   2235   2248     1
   2236   2237     1
   2236   2240     1
   2236   2258     1
   2236   2247     1
   2236   2248     1
   2237   2241     1
   2237   2242     1
   2237   2256     1
   2237   2257     1
   2238   2240     1
   2238   2255     1
   2238   2250     1
   2238   2251     1
   2239   2240     1
   2239   2255     1
   2239   2250     1
   2239   2251     1
   2240   2253     1
   2240   2254     1
   2241   2252     1
   2241   2244     1
   2241   2245     1
   2242   2252     1
   2242   2244     1
   2242   2245     1
   2244   2261     1
   2244   2253     1
   2244   2254     1
   2245   2261     1
   2245   2253     1
   2245   2254     1
   2247   4645     1
   2247   2259     1
   2247   2260     1
   2248   4645     1
   2248   2259     1
   2248   2260     1
   2250   4614     1
   2250   2256     1
   2250   2257     1
   2251   4614     1
   2251   2256     1
   2251   2257     1
   2255   4585     1
   2255   4586     1
   2256   4584     1
   2257   4584     1
   2258   4616     1
   2258   4617     1
   2259   4615     1
   2260   4615     1
   2262   2276     1
   2262   2277     1
   2262   2279     1
   2262   2280     1
   2262   2273     1
   2262   2274     1
   2263   2267     1
   2263   2268     1
   2263   2270     1
   2263   2271     1
   2263   2288     1
   2263   2289     1
   2264   2266     1
   2264   2269     1
   2264   2287     1
   2264   2276     1
   2264   2277     1
   2265   2266     1
   2265   2269     1
   2265   2287     1
   2265   2276     1
   2265   2277     1
   2266   2270     1
   2266   2271     1
   2266   2285     1
   2266   2286     1
   2267   2269     1
   2267   2284     1
   2267   2279     1
   2267   2280     1
   2268   2269     1
   2268   2284     1
   2268   2279     1
   2268   2280     1
   2269   2282     1
   2269   2283     1
   2270   2281     1
   2270   2273     1
   2270   2274     1
   2271   2281     1
   2271   2273     1
   2271   2274     1
   2273   2290     1
   2273   2282     1
   2273   2283     1
   2274   2290     1
   2274   2282     1
   2274   2283     1
   2276   4707     1
   2276   2288     1
   2276   2289     1
   2277   4707     1
   2277   2288     1
   2277   2289     1
   2279   4676     1
   2279   2285     1
   2279   2286     1
   2280   4676     1
   2280   2285     1
   2280   2286     1
   2284   4647     1
   2284   4648     1
   2285   4646     1
   2286   4646     1
   2287   4678     1
   2287   4679     1
   2288   4677     1
   2289   4677     1
   2291   2305     1
   2291   2306     1
   2291   2308     1
   2291   2309     1
   2291   2302     1
   2291   2303     1
   2292   2296     1
   2292   2297     1
   2292   2299     1
   2292   2300     1
   2292   2317     1
   2292   2318     1
   2293   2295     1
   2293   2298     1
   2293   2316     1
   2293   2305     1
   2293   2306     1
   2294   2295     1
   2294   2298     1
   2294   2316     1
   2294   2305     1
   2294   2306     1
   2295   2299     1
   2295   2300     1
   2295   2314     1
   2295   2315     1
   2296   2298     1
   2296   2313     1
   2296   2308     1
   2296   2309     1
   2297   2298     1
   2297   2313     1
   2297   2308     1
   2297   2309     1
   2298   2311     1
   2298   2312     1
   2299   2310     1
   2299   2302     1
   2299   2303     1
   2300   2310     1
   2300   2302     1
   2300   2303     1
   2302   2319     1
   2302   2311     1
   2302   2312     1
   2303   2319     1
   2303   2311     1
   2303   2312     1
   2305   4769     1
   2305   2317     1
   2305   2318     1
   2306   4769     1
   2306   2317     1
   2306   2318     1
   2308   4738     1
   2308   2314     1
   2308   2315     1
   2309   4738     1
   2309   2314     1
   2309   2315     1
   2313   4709     1
   2313   4710     1
   2314   4708     1
   2315   4708     1
   2316   4740     1
   2316   4741     1
   2317   4739     1
   2318   4739     1
   2320   2334     1
   2320   2335     1
   2320   2337     1
   2320   2338     1
   2320   2331     1
   2320   2332     1
   2321   2325     1
   2321   2326     1
   2321   2328     1
   2321   2329     1
   2321   2346     1
   2321   2347     1
   2322   2324     1
   2322   2327     1
   2322   2345     1
   2322   2334     1
   2322   2335     1
   2323   2324     1
   2323   2327     1
   2323   2345     1
   2323   2334     1
   2323   2335     1
   2324   2328     1
   2324   2329     1
   2324   2343     1
   2324   2344     1
   2325   2327     1
   2325   2342     1
   2325   2337     1
   2325   2338     1
   2326   2327     1
   2326   2342     1
   2326   2337     1
   2326   2338     1
   2327   2340     1
   2327   2341     1
   2328   2339     1
   2328   2331     1
   2328   2332     1
   2329   2339     1
   2329   2331     1
   2329   2332     1
   2331   2348     1
   2331   2340     1
   2331   2341     1
   2332   2348     1
   2332   2340     1
   2332   2341     1
   2334   4831     1
   2334   2346     1
   2334   2347     1
   2335   4831     1
   2335   2346     1
   2335   2347     1
   2337   4800     1
   2337   2343     1
   2337   2344     1
   2338   4800     1
   2338   2343     1
   2338   2344     1
   2342   4771     1
   2342   4772     1
   2343   4770     1
   2344   4770     1
   2345   4802     1
   2345   4803     1
   2346   4801     1
   2347   4801     1
   2349   2363     1
   2349   2364     1
   2349   2366     1
   2349   2367     1
   2349   2360     1
   2349   2361     1
   2350   2354     1
   2350   2355     1
   2350   2357     1
   2350   2358     1
   2350   2375     1
   2350   2376     1
   2351   2353     1
   2351   2356     1
   2351   2374     1
   2351   2363     1
   2351   2364     1
   2352   2353     1
   2352   2356     1
   2352   2374     1
   2352   2363     1
   2352   2364     1
   2353   2357     1
   2353   2358     1
   2353   2372     1
   2353   2373     1
   2354   2356     1
   2354   2371     1
   2354   2366     1
   2354   2367     1
   2355   2356     1
   2355   2371     1
   2355   2366     1
   2355   2367     1
   2356   2369     1
   2356   2370     1
   2357   2368     1
   2357   2360     1
   2357   2361     1
   2358   2368     1
   2358   2360     1
   2358   2361     1
   2360   2377     1
   2360   2369     1
   2360   2370     1
   2361   2377     1
   2361   2369     1
   2361   2370     1
   2363   4893     1
   2363   2375     1
   2363   2376     1
   2364   4893     1
   2364   2375     1
   2364   2376     1
   2366   4862     1
   2366   2372     1
   2366   2373     1
   2367   4862     1
   2367   2372     1
   2367   2373     1
   2371   4833     1
   2371   4834     1
   2372   4832     1
   2373   4832     1
   2374   4864     1
   2374   4865     1
   2375   4863     1
   2376   4863     1
   2378   2392     1
   2378   2393     1
   2378   2395     1
   2378   2396     1
   2378   2389     1
   2378   2390     1
   2379   2383     1
   2379   2384     1
   2379   2386     1
   2379   2387     1
   2379   2404     1
   2379   2405     1
   2380   2382     1
   2380   2385     1
   2380   2403     1
   2380   2392     1
   2380   2393     1
   2381   2382     1
   2381   2385     1
   2381   2403     1
   2381   2392     1
   2381   2393     1
   2382   2386     1
   2382   2387     1
   2382   2401     1
   2382   2402     1
   2383   2385     1
   2383   2400     1
   2383   2395     1
   2383   2396     1
   2384   2385     1
   2384   2400     1
   2384   2395     1
   2384   2396     1
   2385   2398     1
   2385   2399     1
   2386   2397     1
   2386   2389     1
   2386   2390     1
   2387   2397     1
   2387   2389     1
   2387   2390     1
   2389   2406     1
   2389   2398     1
   2389   2399     1
   2390   2406     1
   2390   2398     1
   2390   2399     1
   2392   4955     1
   2392   2404     1
   2392   2405     1
   2393   4955     1
   2393   2404     1
   2393   2405     1
   2395   4924     1
   2395   2401     1
   2395   2402     1
   2396   4924     1
   2396   2401     1
   2396   2402     1
   2400   4895     1
   2400   4896     1
   2401   4894     1
   2402   4894     1
   2403   4926     1
   2403   4927     1
   2404   4925     1
   2405   4925     1
   2407   2421     1
   2407   2422     1
   2407   2424     1
   2407   2425     1
   2407   2418     1
   2407   2419     1
   2408   2412     1
   2408   2413     1
   2408   2415     1
   2408   2416     1
   2408   2433     1
   2408   2434     1
   2409   2411     1
   2409   2414     1
   2409   2432     1
   2409   2421     1
   2409   2422     1
   2410   2411     1
   2410   2414     1
   2410   2432     1
   2410   2421     1
   2410   2422     1
   2411   2415     1
   2411   2416     1
   2411   2430     1
   2411   2431     1
   2412   2414     1
   2412   2429     1
   2412   2424     1
   2412   2425     1
   2413   2414     1
   2413   2429     1
   2413   2424     1
   2413   2425     1
   2414   2427     1
   2414   2428     1
   2415   2426     1
   2415   2418     1
   2415   2419     1
   2416   2426     1
   2416   2418     1
   2416   2419     1
   2418   2435     1
   2418   2427     1
   2418   2428     1
   2419   2435     1
   2419   2427     1
   2419   2428     1
   2421   5017     1
   2421   2433     1
   2421   2434     1
   2422   5017     1
   2422   2433     1
   2422   2434     1
   2424   4986     1
   2424   2430     1
   2424   2431     1
   2425   4986     1
   2425   2430     1
   2425   2431     1
   2429   4957     1
   2429   4958     1
   2430   4956     1
   2431   4956     1
   2432   4988     1
   2432   4989     1
   2433   4987     1
   2434   4987     1
   2436   2450     1
   2436   2451     1
   2436   2453     1
   2436   2454     1
   2436   2447     1
   2436   2448     1
   2437   2441     1
   2437   2442     1
   2437   2444     1
   2437   2445     1
   2437   2462     1
   2437   2463     1
   2438   2440     1
   2438   2443     1
   2438   2461     1
   2438   2450     1
   2438   2451     1
   2439   2440     1
   2439   2443     1
   2439   2461     1
   2439   2450     1
   2439   2451     1
   2440   2444     1
   2440   2445     1
   2440   2459     1
   2440   2460     1
   2441   2443     1
   2441   2458     1
   2441   2453     1
   2441   2454     1
   2442   2443     1
   2442   2458     1
   2442   2453     1
   2442   2454     1
   2443   2456     1
   2443   2457     1
   2444   2455     1
   2444   2447     1
   2444   2448     1
   2445   2455     1
   2445   2447     1
   2445   2448     1
   2447   2464     1
   2447   2456     1
   2447   2457     1
   2448   2464     1
   2448   2456     1
   2448   2457     1
   2450   5079     1
   2450   2462     1
   2450   2463     1
   2451   5079     1
   2451   2462     1
   2451   2463     1
   2453   5048     1
   2453   2459     1
   2453   2460     1
   2454   5048     1
   2454   2459     1
   2454   2460     1
   2458   5019     1
   2458   5020     1
   2459   5018     1
   2460   5018     1
   2461   5050     1
   2461   5051     1
   2462   5049     1
   2463   5049     1
   2465   2479     1
   2465   2480     1
   2465   2482     1
   2465   2483     1
   2465   2476     1
   2465   2477     1
   2466   2470     1
   2466   2471     1
   2466   2473     1
   2466   2474     1
   2466   2491     1
   2466   2492     1
   2467   2469     1
   2467   2472     1
   2467   2490     1
   2467   2479     1
   2467   2480     1
   2468   2469     1
   2468   2472     1
   2468   2490     1
   2468   2479     1
   2468   2480     1
   2469   2473     1
   2469   2474     1
   2469   2488     1
   2469   2489     1
   2470   2472     1
   2470   2487     1
   2470   2482     1
   2470   2483     1
   2471   2472     1
   2471   2487     1
   2471   2482     1
   2471   2483     1
   2472   2485     1
   2472   2486     1
   2473   2484     1
   2473   2476     1
   2473   2477     1
   2474   2484     1
   2474   2476     1
   2474   2477     1
   2476   2493     1
   2476   2485     1
   2476   2486     1
   2477   2493     1
   2477   2485     1
   2477   2486     1
   2479   5141     1
   2479   2491     1
   2479   2492     1
   2480   5141     1
   2480   2491     1
   2480   2492     1
   2482   5110     1
   2482   2488     1
   2482   2489     1
   2483   5110     1
   2483   2488     1
   2483   2489     1
   2487   5081     1
   2487   5082     1
   2488   5080     1
   2489   5080     1
   2490   5112     1
   2490   5113     1
   2491   5111     1
   2492   5111     1
   2494   2508     1
   2494   2509     1
   2494   2511     1
   2494   2512     1
   2494   2505     1
   2494   2506     1
   2495   2499     1
   2495   2500     1
   2495   2502     1
   2495   2503     1
   2495   2520     1
   2495   2521     1
   2496   2498     1
   2496   2501     1
   2496   2519     1
   2496   2508     1
   2496   2509     1
   2497   2498     1
   2497   2501     1
   2497   2519     1
   2497   2508     1
   2497   2509     1
   2498   2502     1
   2498   2503     1
   2498   2517     1
   2498   2518     1
   2499   2501     1
   2499   2516     1
   2499   2511     1
   2499   2512     1
   2500   2501     1
   2500   2516     1
   2500   2511     1
   2500   2512     1
   2501   2514     1
   2501   2515     1
   2502   2513     1
   2502   2505     1
   2502   2506     1
   2503   2513     1
   2503   2505     1
   2503   2506     1
   2505   2522     1
   2505   2514     1
   2505   2515     1
   2506   2522     1
   2506   2514     1
   2506   2515     1
   2508   5203     1
   2508   2520     1
   2508   2521     1
   2509   5203     1
   2509   2520     1
   2509   2521     1
   2511   5172     1
   2511   2517     1
   2511   2518     1
   2512   5172     1
   2512   2517     1
   2512   2518     1
   2516   5143     1
   2516   5144     1
   2517   5142     1
   2518   5142     1
   2519   5174     1
   2519   5175     1
   2520   5173     1
   2521   5173     1
   2523   2537     1
   2523   2538     1
   2523   2540     1
   2523   2541     1
   2523   2534     1
   2523   2535     1
   2524   2528     1
   2524   2529     1
   2524   2531     1
   2524   2532     1
   2524   2549     1
   2524   2550     1
   2525   2527     1
   2525   2530     1
   2525   2548     1
   2525   2537     1
   2525   2538     1
   2526   2527     1
   2526   2530     1
   2526   2548     1
   2526   2537     1
   2526   2538     1
   2527   2531     1
   2527   2532     1
   2527   2546     1
   2527   2547     1
   2528   2530     1
   2528   2545     1
   2528   2540     1
   2528   2541     1
   2529   2530     1
   2529   2545     1
   2529   2540     1
   2529   2541     1
   2530   2543     1
   2530   2544     1
   2531   2542     1
   2531   2534     1
   2531   2535     1
   2532   2542     1
   2532   2534     1
   2532   2535     1
   2534   2551     1
   2534   2543     1
   2534   2544     1
   2535   2551     1
   2535   2543     1
   2535   2544     1
   2537   5265     1
   2537   2549     1
   2537   2550     1
   2538   5265     1
   2538   2549     1
   2538   2550     1
   2540   5234     1
   2540   2546     1
   2540   2547     1
   2541   5234     1
   2541   2546     1
   2541   2547     1
   2545   5205     1
   2545   5206     1
   2546   5204     1
   2547   5204     1
   2548   5236     1
   2548   5237     1
   2549   5235     1
   2550   5235     1
   2552   2566     1
   2552   2567     1
   2552   2569     1
   2552   2570     1
   2552   2563     1
   2552   2564     1
   2553   2557     1
   2553   2558     1
   2553   2560     1
   2553   2561     1
   2553   2578     1
   2553   2579     1
   2554   2556     1
   2554   2559     1
   2554   2577     1
   2554   2566     1
   2554   2567     1
   2555   2556     1
   2555   2559     1
   2555   2577     1
   2555   2566     1
   2555   2567     1
   2556   2560     1
   2556   2561     1
   2556   2575     1
   2556   2576     1
   2557   2559     1
   2557   2574     1
   2557   2569     1
   2557   2570     1
   2558   2559     1
   2558   2574     1
   2558   2569     1
   2558   2570     1
   2559   2572     1
   2559   2573     1
   2560   2571     1
   2560   2563     1
   2560   2564     1
   2561   2571     1
   2561   2563     1
   2561   2564     1
   2563   2580     1
   2563   2572     1
   2563   2573     1
   2564   2580     1
   2564   2572     1
   2564   2573     1
   2566   5327     1
   2566   2578     1
   2566   2579     1
   2567   5327     1
   2567   2578     1
   2567   2579     1
   2569   5296     1
   2569   2575     1
   2569   2576     1
   2570   5296     1
   2570   2575     1
   2570   2576     1
   2574   5267     1
   2574   5268     1
   2575   5266     1
   2576   5266     1
   2577   5298     1
   2577   5299     1
   2578   5297     1
   2579   5297     1
   2581   2595     1
   2581   2596     1
   2581   2598     1
   2581   2599     1
   2581   2592     1
   2581   2593     1
   2582   2586     1
   2582   2587     1
   2582   2589     1
   2582   2590     1
   2582   2607     1
   2582   2608     1
   2583   2585     1
   2583   2588     1
   2583   2606     1
   2583   2595     1
   2583   2596     1
   2584   2585     1
   2584   2588     1
   2584   2606     1
   2584   2595     1
   2584   2596     1
   2585   2589     1
   2585   2590     1
   2585   2604     1
   2585   2605     1
   2586   2588     1
   2586   2603     1
   2586   2598     1
   2586   2599     1
   2587   2588     1
   2587   2603     1
   2587   2598     1
   2587   2599     1
   2588   2601     1
   2588   2602     1
   2589   2600     1
   2589   2592     1
   2589   2593     1
   2590   2600     1
   2590   2592     1
   2590   2593     1
   2592   2609     1
   2592   2601     1
   2592   2602     1
   2593   2609     1
   2593   2601     1
   2593   2602     1
   2595   5389     1
   2595   2607     1
   2595   2608     1
   2596   5389     1
   2596   2607     1
   2596   2608     1
   2598   5358     1
   2598   2604     1
   2598   2605     1
   2599   5358     1
   2599   2604     1
   2599   2605     1
   2603   5329     1
   2603   5330     1
   2604   5328     1
   2605   5328     1
   2606   5360     1
   2606   5361     1
   2607   5359     1
   2608   5359     1
   2610   2624     1
   2610   2625     1
   2610   2627     1
   2610   2628     1
   2610   2621     1
   2610   2622     1
   2611   2615     1
   2611   2616     1
   2611   2618     1
   2611   2619     1
   2611   2636     1
   2611   2637     1
   2612   2614     1
   2612   2617     1
   2612   2635     1
   2612   2624     1
   2612   2625     1
   2613   2614     1
   2613   2617     1
   2613   2635     1
   2613   2624     1
   2613   2625     1
   2614   2618     1
   2614   2619     1
   2614   2633     1
   2614   2634     1
   2615   2617     1
   2615   2632     1
   2615   2627     1
   2615   2628     1
   2616   2617     1
   2616   2632     1
   2616   2627     1
   2616   2628     1
   2617   2630     1
   2617   2631     1
   2618   2629     1
   2618   2621     1
   2618   2622     1
   2619   2629     1
   2619   2621     1
   2619   2622     1
   2621   2638     1
   2621   2630     1
   2621   2631     1
   2622   2638     1
   2622   2630     1
   2622   2631     1
   2624   5451     1
   2624   2636     1
   2624   2637     1
   2625   5451     1
   2625   2636     1
   2625   2637     1
   2627   5420     1
   2627   2633     1
   2627   2634     1
   2628   5420     1
   2628   2633     1
   2628   2634     1
   2632   5391     1
   2632   5392     1
   2633   5390     1
   2634   5390     1
   2635   5422     1
   2635   5423     1
   2636   5421     1
   2637   5421     1
   2639   2653     1
   2639   2654     1
   2639   2656     1
   2639   2657     1
   2639   2650     1
   2639   2651     1
   2640   2644     1
   2640   2645     1
   2640   2647     1
   2640   2648     1
   2640   2665     1
   2640   2666     1
   2641   2643     1
   2641   2646     1
   2641   2664     1
   2641   2653     1
   2641   2654     1
   2642   2643     1
   2642   2646     1
   2642   2664     1
   2642   2653     1
   2642   2654     1
   2643   2647     1
   2643   2648     1
   2643   2662     1
   2643   2663     1
   2644   2646     1
   2644   2661     1
   2644   2656     1
   2644   2657     1
   2645   2646     1
   2645   2661     1
   2645   2656     1
   2645   2657     1
   2646   2659     1
   2646   2660     1
   2647   2658     1
   2647   2650     1
   2647   2651     1
   2648   2658     1
   2648   2650     1
   2648   2651     1
   2650   2667     1
   2650   2659     1
   2650   2660     1
   2651   2667     1
   2651   2659     1
   2651   2660     1
   2653   5513     1
   2653   2665     1
   2653   2666     1
   2654   5513     1
   2654   2665     1
   2654   2666     1
   2656   5482     1
   2656   2662     1
   2656   2663     1
   2657   5482     1
   2657   2662     1
   2657   2663     1
   2661   5453     1
   2661   5454     1
   2662   5452     1
   2663   5452     1
   2664   5484     1
   2664   5485     1
   2665   5483     1
   2666   5483     1
   2668   2682     1
   2668   2683     1
   2668   2685     1
   2668   2686     1
   2668   2679     1
   2668   2680     1
   2669   2673     1
   2669   2674     1
   2669   2676     1
   2669   2677     1
   2669   2694     1
   2669   2695     1
   2670   2672     1
   2670   2675     1
   2670   2693     1
   2670   2682     1
   2670   2683     1
   2671   2672     1
   2671   2675     1
   2671   2693     1
   2671   2682     1
   2671   2683     1
   2672   2676     1
   2672   2677     1
   2672   2691     1
   2672   2692     1
   2673   2675     1
   2673   2690     1
   2673   2685     1
   2673   2686     1
   2674   2675     1
   2674   2690     1
   2674   2685     1
   2674   2686     1
   2675   2688     1
   2675   2689     1
   2676   2687     1
   2676   2679     1
   2676   2680     1
   2677   2687     1
   2677   2679     1
   2677   2680     1
   2679   2696     1
   2679   2688     1
   2679   2689     1
   2680   2696     1
   2680   2688     1
   2680   2689     1
   2682   5575     1
   2682   2694     1
   2682   2695     1
   2683   5575     1
   2683   2694     1
   2683   2695     1
   2685   5544     1
   2685   2691     1
   2685   2692     1
   2686   5544     1
   2686   2691     1
   2686   2692     1
   2690   5515     1
   2690   5516     1
   2691   5514     1
   2692   5514     1
   2693   5546     1
   2693   5547     1
   2694   5545     1
   2695   5545     1
   2697   2711     1
   2697   2712     1
   2697   2714     1
   2697   2715     1
   2697   2708     1
   2697   2709     1
   2698   2702     1
   2698   2703     1
   2698   2705     1
   2698   2706     1
   2698   2723     1
   2698   2724     1
   2699   2701     1
   2699   2704     1
   2699   2722     1
   2699   2711     1
   2699   2712     1
   2700   2701     1
   2700   2704     1
   2700   2722     1
   2700   2711     1
   2700   2712     1
   2701   2705     1
   2701   2706     1
   2701   2720     1
   2701   2721     1
   2702   2704     1
   2702   2719     1
   2702   2714     1
   2702   2715     1
   2703   2704     1
   2703   2719     1
   2703   2714     1
   2703   2715     1
   2704   2717     1
   2704   2718     1
   2705   2716     1
   2705   2708     1
   2705   2709     1
   2706   2716     1
   2706   2708     1
   2706   2709     1
   2708   2725     1
   2708   2717     1
   2708   2718     1
   2709   2725     1
   2709   2717     1
   2709   2718     1
   2711   5637     1
   2711   2723     1
   2711   2724     1
   2712   5637     1
   2712   2723     1
   2712   2724     1
   2714   5606     1
   2714   2720     1
   2714   2721     1
   2715   5606     1
   2715   2720     1
   2715   2721     1
   2719   5577     1
   2719   5578     1
   2720   5576     1
   2721   5576     1
   2722   5608     1
   2722   5609     1
   2723   5607     1
   2724   5607     1
   2726   2740     1
   2726   2741     1
   2726   2743     1
   2726   2744     1
   2726   2737     1
   2726   2738     1
   2727   2731     1
   2727   2732     1
   2727   2734     1
   2727   2735     1
   2727   2752     1
   2727   2753     1
   2728   2730     1
   2728   2733     1
   2728   2751     1
   2728   2740     1
   2728   2741     1
   2729   2730     1
   2729   2733     1
   2729   2751     1
   2729   2740     1
   2729   2741     1
   2730   2734     1
   2730   2735     1
   2730   2749     1
   2730   2750     1
   2731   2733     1
   2731   2748     1
   2731   2743     1
   2731   2744     1
   2732   2733     1
   2732   2748     1
   2732   2743     1
   2732   2744     1
   2733   2746     1
   2733   2747     1
   2734   2745     1
   2734   2737     1
   2734   2738     1
   2735   2745     1
   2735   2737     1
   2735   2738     1
   2737   2754     1
   2737   2746     1
   2737   2747     1
   2738   2754     1
   2738   2746     1
   2738   2747     1
   2740   5699     1
   2740   2752     1
   2740   2753     1
   2741   5699     1
   2741   2752     1
   2741   2753     1
   2743   5668     1
   2743   2749     1
   2743   2750     1
   2744   5668     1
   2744   2749     1
   2744   2750     1
   2748   5639     1
   2748   5640     1
   2749   5638     1
   2750   5638     1
   2751   5670     1
   2751   5671     1
   2752   5669     1
   2753   5669     1
   2755   2769     1
   2755   2770     1
   2755   2772     1
   2755   2773     1
   2755   2766     1
   2755   2767     1
   2756   2760     1
   2756   2761     1
   2756   2763     1
   2756   2764     1
   2756   2781     1
   2756   2782     1
   2757   2759     1
   2757   2762     1
   2757   2780     1
   2757   2769     1
   2757   2770     1
   2758   2759     1
   2758   2762     1
   2758   2780     1
   2758   2769     1
   2758   2770     1
   2759   2763     1
   2759   2764     1
   2759   2778     1
   2759   2779     1
   2760   2762     1
   2760   2777     1
   2760   2772     1
   2760   2773     1
   2761   2762     1
   2761   2777     1
   2761   2772     1
   2761   2773     1
   2762   2775     1
   2762   2776     1
   2763   2774     1
   2763   2766     1
   2763   2767     1
   2764   2774     1
   2764   2766     1
   2764   2767     1
   2766   2783     1
   2766   2775     1
   2766   2776     1
   2767   2783     1
   2767   2775     1
   2767   2776     1
   2769   5761     1
   2769   2781     1
   2769   2782     1
   2770   5761     1
   2770   2781     1
   2770   2782     1
   2772   5730     1
   2772   2778     1
   2772   2779     1
   2773   5730     1
   2773   2778     1
   2773   2779     1
   2777   5701     1
   2777   5702     1
   2778   5700     1
   2779   5700     1
   2780   5732     1
   2780   5733     1
   2781   5731     1
   2782   5731     1
   2784   2798     1
   2784   2799     1
   2784   2801     1
   2784   2802     1
   2784   2795     1
   2784   2796     1
   2785   2789     1
   2785   2790     1
   2785   2792     1
   2785   2793     1
   2785   2810     1
   2785   2811     1
   2786   2788     1
   2786   2791     1
   2786   2809     1
   2786   2798     1
   2786   2799     1
   2787   2788     1
   2787   2791     1
   2787   2809     1
   2787   2798     1
   2787   2799     1
   2788   2792     1
   2788   2793     1
   2788   2807     1
   2788   2808     1
   2789   2791     1
   2789   2806     1
   2789   2801     1
   2789   2802     1
   2790   2791     1
   2790   2806     1
   2790   2801     1
   2790   2802     1
   2791   2804     1
   2791   2805     1
   2792   2803     1
   2792   2795     1
   2792   2796     1
   2793   2803     1
   2793   2795     1
   2793   2796     1
   2795   2812     1
   2795   2804     1
   2795   2805     1
   2796   2812     1
   2796   2804     1
   2796   2805     1
   2798   5823     1
   2798   2810     1
   2798   2811     1
   2799   5823     1
   2799   2810     1
   2799   2811     1
   2801   5792     1
   2801   2807     1
   2801   2808     1
   2802   5792     1
   2802   2807     1
   2802   2808     1
   2806   5763     1
   2806   5764     1
   2807   5762     1
   2808   5762     1
   2809   5794     1
   2809   5795     1
   2810   5793     1
   2811   5793     1
   2813   2827     1
   2813   2828     1
   2813   2830     1
   2813   2831     1
   2813   2824     1
   2813   2825     1
   2814   2818     1
   2814   2819     1
   2814   2821     1
   2814   2822     1
   2814   2839     1
   2814   2840     1
   2815   2817     1
   2815   2820     1
   2815   2838     1
   2815   2827     1
   2815   2828     1
   2816   2817     1
   2816   2820     1
   2816   2838     1
   2816   2827     1
   2816   2828     1
   2817   2821     1
   2817   2822     1
   2817   2836     1
   2817   2837     1
   2818   2820     1
   2818   2835     1
   2818   2830     1
   2818   2831     1
   2819   2820     1
   2819   2835     1
   2819   2830     1
   2819   2831     1
   2820   2833     1
   2820   2834     1
   2821   2832     1
   2821   2824     1
   2821   2825     1
   2822   2832     1
   2822   2824     1
   2822   2825     1
   2824   2841     1
   2824   2833     1
   2824   2834     1
   2825   2841     1
   2825   2833     1
   2825   2834     1
   2827   5885     1
   2827   2839     1
   2827   2840     1
   2828   5885     1
   2828   2839     1
   2828   2840     1
   2830   5854     1
   2830   2836     1
   2830   2837     1
   2831   5854     1
   2831   2836     1
   2831   2837     1
   2835   5825     1
   2835   5826     1
   2836   5824     1
   2837   5824     1
   2838   5856     1
   2838   5857     1
   2839   5855     1
   2840   5855     1
   2842   2856     1
   2842   2857     1
   2842   2859     1
   2842   2860     1
   2842   2853     1
   2842   2854     1
   2843   2847     1
   2843   2848     1
   2843   2850     1
   2843   2851     1
   2843   2868     1
   2843   2869     1
   2844   2846     1
   2844   2849     1
   2844   2867     1
   2844   2856     1
   2844   2857     1
   2845   2846     1
   2845   2849     1
   2845   2867     1
   2845   2856     1
   2845   2857     1
   2846   2850     1
   2846   2851     1
   2846   2865     1
   2846   2866     1
   2847   2849     1
   2847   2864     1
   2847   2859     1
   2847   2860     1
   2848   2849     1
   2848   2864     1
   2848   2859     1
   2848   2860     1
   2849   2862     1
   2849   2863     1
   2850   2861     1
   2850   2853     1
   2850   2854     1
   2851   2861     1
   2851   2853     1
   2851   2854     1
   2853   2870     1
   2853   2862     1
   2853   2863     1
   2854   2870     1
   2854   2862     1
   2854   2863     1
   2856   5947     1
   2856   2868     1
   2856   2869     1
   2857   5947     1
   2857   2868     1
   2857   2869     1
   2859   5916     1
   2859   2865     1
   2859   2866     1
   2860   5916     1
   2860   2865     1
   2860   2866     1
   2864   5887     1
   2864   5888     1
   2865   5886     1
   2866   5886     1
   2867   5918     1
   2867   5919     1
   2868   5917     1
   2869   5917     1
   2871   2885     1
   2871   2886     1
   2871   2888     1
   2871   2889     1
   2871   2882     1
   2871   2883     1
   2872   2876     1
   2872   2877     1
   2872   2879     1
   2872   2880     1
   2872   2897     1
   2872   2898     1
   2873   2875     1
   2873   2878     1
   2873   2896     1
   2873   2885     1
   2873   2886     1
   2874   2875     1
   2874   2878     1
   2874   2896     1
   2874   2885     1
   2874   2886     1
   2875   2879     1
   2875   2880     1
   2875   2894     1
   2875   2895     1
   2876   2878     1
   2876   2893     1
   2876   2888     1
   2876   2889     1
   2877   2878     1
   2877   2893     1
   2877   2888     1
   2877   2889     1
   2878   2891     1
   2878   2892     1
   2879   2890     1
   2879   2882     1
   2879   2883     1
   2880   2890     1
   2880   2882     1
   2880   2883     1
   2882   2899     1
   2882   2891     1
   2882   2892     1
   2883   2899     1
   2883   2891     1
   2883   2892     1
   2885   6009     1
   2885   2897     1
   2885   2898     1
   2886   6009     1
   2886   2897     1
   2886   2898     1
   2888   5978     1
   2888   2894     1
   2888   2895     1
   2889   5978     1
   2889   2894     1
   2889   2895     1
   2893   5949     1
   2893   5950     1
   2894   5948     1
   2895   5948     1
   2896   5980     1
   2896   5981     1
   2897   5979     1
   2898   5979     1
   2900   2914     1
   2900   2915     1
   2900   2917     1
   2900   2918     1
   2900   2911     1
   2900   2912     1
   2901   2905     1
   2901   2906     1
   2901   2908     1
   2901   2909     1
   2901   2926     1
   2901   2927     1
   2902   2904     1
   2902   2907     1
   2902   2925     1
   2902   2914     1
   2902   2915     1
   2903   2904     1
   2903   2907     1
   2903   2925     1
   2903   2914     1
   2903   2915     1
   2904   2908     1
   2904   2909     1
   2904   2923     1
   2904   2924     1
   2905   2907     1
   2905   2922     1
   2905   2917     1
   2905   2918     1
   2906   2907     1
   2906   2922     1
   2906   2917     1
   2906   2918     1
   2907   2920     1
   2907   2921     1
   2908   2919     1
   2908   2911     1
   2908   2912     1
   2909   2919     1
   2909   2911     1
   2909   2912     1
   2911   2928     1
   2911   2920     1
   2911   2921     1
   2912   2928     1
   2912   2920     1
   2912   2921     1
   2914   6071     1
   2914   2926     1
   2914   2927     1
   2915   6071     1
   2915   2926     1
   2915   2927     1
   2917   6040     1
   2917   2923     1
   2917   2924     1
   2918   6040     1
   2918   2923     1
   2918   2924     1
   2922   6011     1
   2922   6012     1
   2923   6010     1
   2924   6010     1
   2925   6042     1
   2925   6043     1
   2926   6041     1
   2927   6041     1
   2929   2943     1
   2929   2944     1
   2929   2946     1
   2929   2947     1
   2929   2940     1
   2929   2941     1
   2930   2934     1
   2930   2935     1
   2930   2937     1
   2930   2938     1
   2930   2955     1
   2930   2956     1
   2931   2933     1
   2931   2936     1
   2931   2954     1
   2931   2943     1
   2931   2944     1
   2932   2933     1
   2932   2936     1
   2932   2954     1
   2932   2943     1
   2932   2944     1
   2933   2937     1
   2933   2938     1
   2933   2952     1
   2933   2953     1
   2934   2936     1
   2934   2951     1
   2934   2946     1
   2934   2947     1
   2935   2936     1
   2935   2951     1
   2935   2946     1
   2935   2947     1
   2936   2949     1
   2936   2950     1
   2937   2948     1
   2937   2940     1
   2937   2941     1
   2938   2948     1
   2938   2940     1
   2938   2941     1
   2940   2957     1
   2940   2949     1
   2940   2950     1
   2941   2957     1
   2941   2949     1
   2941   2950     1
   2943   6133     1
   2943   2955     1
   2943   2956     1
   2944   6133     1
   2944   2955     1
   2944   2956     1
   2946   6102     1
   2946   2952     1
   2946   2953     1
   2947   6102     1
   2947   2952     1
   2947   2953     1
   2951   6073     1
   2951   6074     1
   2952   6072     1
   2953   6072     1
   2954   6104     1
   2954   6105     1
   2955   6103     1
   2956   6103     1
   2958   2972     1
   2958   2973     1
   2958   2975     1
   2958   2976     1
   2958   2969     1
   2958   2970     1
   2959   2963     1
   2959   2964     1
   2959   2966     1
   2959   2967     1
   2959   2984     1
   2959   2985     1
   2960   2962     1
   2960   2965     1
   2960   2983     1
   2960   2972     1
   2960   2973     1
   2961   2962     1
   2961   2965     1
   2961   2983     1
   2961   2972     1
   2961   2973     1
   2962   2966     1
   2962   2967     1
   2962   2981     1
   2962   2982     1
   2963   2965     1
   2963   2980     1
   2963   2975     1
   2963   2976     1
   2964   2965     1
   2964   2980     1
   2964   2975     1
   2964   2976     1
   2965   2978     1
   2965   2979     1
   2966   2977     1
   2966   2969     1
   2966   2970     1
   2967   2977     1
   2967   2969     1
   2967   2970     1
   2969   2986     1
   2969   2978     1
   2969   2979     1
   2970   2986     1
   2970   2978     1
   2970   2979     1
   2972   6195     1
   2972   2984     1
   2972   2985     1
   2973   6195     1
   2973   2984     1
   2973   2985     1
   2975   6164     1
   2975   2981     1
   2975   2982     1
   2976   6164     1
   2976   2981     1
   2976   2982     1
   2980   6135     1
   2980   6136     1
   2981   6134     1
   2982   6134     1
   2983   6166     1
   2983   6167     1
   2984   6165     1
   2985   6165     1
   2987   3001     1
   2987   3002     1
   2987   3004     1
   2987   3005     1
   2987   2998     1
   2987   2999     1
   2988   2992     1
   2988   2993     1
   2988   2995     1
   2988   2996     1
   2988   3013     1
   2988   3014     1
   2989   2991     1
   2989   2994     1
   2989   3012     1
   2989   3001     1
   2989   3002     1
   2990   2991     1
   2990   2994     1
   2990   3012     1
   2990   3001     1
   2990   3002     1
   2991   2995     1
   2991   2996     1
   2991   3010     1
   2991   3011     1
   2992   2994     1
   2992   3009     1
   2992   3004     1
   2992   3005     1
   2993   2994     1
   2993   3009     1
   2993   3004     1
   2993   3005     1
   2994   3007     1
   2994   3008     1
   2995   3006     1
   2995   2998     1
   2995   2999     1
   2996   3006     1
   2996   2998     1
   2996   2999     1
   2998   3015     1
   2998   3007     1
   2998   3008     1
   2999   3015     1
   2999   3007     1
   2999   3008     1
   3001   6257     1
   3001   3013     1
   3001   3014     1
   3002   6257     1
   3002   3013     1
   3002   3014     1
   3004   6226     1
   3004   3010     1
   3004   3011     1
   3005   6226     1
   3005   3010     1
   3005   3011     1
   3009   6197     1
   3009   6198     1
   3010   6196     1
   3011   6196     1
   3012   6228     1
   3012   6229     1
   3013   6227     1
   3014   6227     1
   3016   3030     1
   3016   3031     1
   3016   3033     1
   3016   3034     1
   3016   3027     1
   3016   3028     1
   3017   3021     1
   3017   3022     1
   3017   3024     1
   3017   3025     1
   3017   3042     1
   3017   3043     1
   3018   3020     1
   3018   3023     1
   3018   3041     1
   3018   3030     1
   3018   3031     1
   3019   3020     1
   3019   3023     1
   3019   3041     1
   3019   3030     1
   3019   3031     1
   3020   3024     1
   3020   3025     1
   3020   3039     1
   3020   3040     1
   3021   3023     1
   3021   3038     1
   3021   3033     1
   3021   3034     1
   3022   3023     1
   3022   3038     1
   3022   3033     1
   3022   3034     1
   3023   3036     1
   3023   3037     1
   3024   3035     1
   3024   3027     1
   3024   3028     1
   3025   3035     1
   3025   3027     1
   3025   3028     1
   3027   3044     1
   3027   3036     1
   3027   3037     1
   3028   3044     1
   3028   3036     1
   3028   3037     1
   3030   6319     1
   3030   3042     1
   3030   3043     1
   3031   6319     1
   3031   3042     1
   3031   3043     1
   3033   6288     1
   3033   3039     1
   3033   3040     1
   3034   6288     1
   3034   3039     1
   3034   3040     1
   3038   6259     1
   3038   6260     1
   3039   6258     1
   3040   6258     1
   3041   6290     1
   3041   6291     1
   3042   6289     1
   3043   6289     1
   3045   3059     1
   3045   3060     1
   3045   3062     1
   3045   3063     1
   3045   3056     1
   3045   3057     1
   3046   3050     1
   3046   3051     1
   3046   3053     1
   3046   3054     1
   3046   3071     1
   3046   3072     1
   3047   3049     1
   3047   3052     1
   3047   3070     1
   3047   3059     1
   3047   3060     1
   3048   3049     1
   3048   3052     1
   3048   3070     1
   3048   3059     1
   3048   3060     1
   3049   3053     1
   3049   3054     1
   3049   3068     1
   3049   3069     1
   3050   3052     1
   3050   3067     1
   3050   3062     1
   3050   3063     1
   3051   3052     1
   3051   3067     1
   3051   3062     1
   3051   3063     1
   3052   3065     1
   3052   3066     1
   3053   3064     1
   3053   3056     1
   3053   3057     1
   3054   3064     1
   3054   3056     1
   3054   3057     1
   3056   3073     1
   3056   3065     1
   3056   3066     1
   3057   3073     1
   3057   3065     1
   3057   3066     1
   3059   6381     1
   3059   3071     1
   3059   3072     1
   3060   6381     1
   3060   3071     1
   3060   3072     1
   3062   6350     1
   3062   3068     1
   3062   3069     1
   3063   6350     1
   3063   3068     1
   3063   3069     1
   3067   6321     1
   3067   6322     1
   3068   6320     1
   3069   6320     1
   3070   6352     1
   3070   6353     1
   3071   6351     1
   3072   6351     1
   3074   3088     1
   3074   3089     1
   3074   3091     1
   3074   3092     1
   3074   3085     1
   3074   3086     1
   3075   3079     1
   3075   3080     1
   3075   3082     1
   3075   3083     1
   3075   3100     1
   3075   3101     1
   3076   3078     1
   3076   3081     1
   3076   3099     1
   3076   3088     1
   3076   3089     1
   3077   3078     1
   3077   3081     1
   3077   3099     1
   3077   3088     1
   3077   3089     1
   3078   3082     1
   3078   3083     1
   3078   3097     1
   3078   3098     1
   3079   3081     1
   3079   3096     1
   3079   3091     1
   3079   3092     1
   3080   3081     1
   3080   3096     1
   3080   3091     1
   3080   3092     1
   3081   3094     1
   3081   3095     1
   3082   3093     1
   3082   3085     1
   3082   3086     1
   3083   3093     1
   3083   3085     1
   3083   3086     1
   3085   3102     1
   3085   3094     1
   3085   3095     1
   3086   3102     1
   3086   3094     1
   3086   3095     1
   3088   6443     1
   3088   3100     1
   3088   3101     1
   3089   6443     1
   3089   3100     1
   3089   3101     1
   3091   6412     1
   3091   3097     1
   3091   3098     1
   3092   6412     1
   3092   3097     1
   3092   3098     1
   3096   6383     1
   3096   6384     1
   3097   6382     1
   3098   6382     1
   3099   6414     1
   3099   6415     1
   3100   6413     1
   3101   6413     1
   3103   3117     1
   3103   3118     1
   3103   3120     1
   3103   3121     1
   3103   3114     1
   3103   3115     1
   3104   3108     1
   3104   3109     1
   3104   3111     1
   3104   3112     1
   3104   3129     1
   3104   3130     1
   3105   3107     1
   3105   3110     1
   3105   3128     1
   3105   3117     1
   3105   3118     1
   3106   3107     1
   3106   3110     1
   3106   3128     1
   3106   3117     1
   3106   3118     1
   3107   3111     1
   3107   3112     1
   3107   3126     1
   3107   3127     1
   3108   3110     1
   3108   3125     1
   3108   3120     1
   3108   3121     1
   3109   3110     1
   3109   3125     1
   3109   3120     1
   3109   3121     1
   3110   3123     1
   3110   3124     1
   3111   3122     1
   3111   3114     1
   3111   3115     1
   3112   3122     1
   3112   3114     1
   3112   3115     1
   3114   3131     1
   3114   3123     1
   3114   3124     1
   3115   3131     1
   3115   3123     1
   3115   3124     1
   3117   6505     1
   3117   3129     1
   3117   3130     1
   3118   6505     1
   3118   3129     1
   3118   3130     1
   3120   6474     1
   3120   3126     1
   3120   3127     1
   3121   6474     1
   3121   3126     1
   3121   3127     1
   3125   6445     1
   3125   6446     1
   3126   6444     1
   3127   6444     1
   3128   6476     1
   3128   6477     1
   3129   6475     1
   3130   6475     1
   3132   3146     1
   3132   3147     1
   3132   3149     1
   3132   3150     1
   3132   3143     1
   3132   3144     1
   3133   3137     1
   3133   3138     1
   3133   3140     1
   3133   3141     1
   3133   3158     1
   3133   3159     1
   3134   3136     1
   3134   3139     1
   3134   3157     1
   3134   3146     1
   3134   3147     1
   3135   3136     1
   3135   3139     1
   3135   3157     1
   3135   3146     1
   3135   3147     1
   3136   3140     1
   3136   3141     1
   3136   3155     1
   3136   3156     1
   3137   3139     1
   3137   3154     1
   3137   3149     1
   3137   3150     1
   3138   3139     1
   3138   3154     1
   3138   3149     1
   3138   3150     1
   3139   3152     1
   3139   3153     1
   3140   3151     1
   3140   3143     1
   3140   3144     1
   3141   3151     1
   3141   3143     1
   3141   3144     1
   3143   3160     1
   3143   3152     1
   3143   3153     1
   3144   3160     1
   3144   3152     1
   3144   3153     1
   3146   6567     1
   3146   3158     1
   3146   3159     1
   3147   6567     1
   3147   3158     1
   3147   3159     1
   3149   6536     1
   3149   3155     1
   3149   3156     1
   3150   6536     1
   3150   3155     1
   3150   3156     1
   3154   6507     1
   3154   6508     1
   3155   6506     1
   3156   6506     1
   3157   6538     1
   3157   6539     1
   3158   6537     1
   3159   6537     1
   3161   3175     1
   3161   3176     1
   3161   3178     1
   3161   3179     1
   3161   3172     1
   3161   3173     1
   3162   3166     1
   3162   3167     1
   3162   3169     1
   3162   3170     1
   3162   3187     1
   3162   3188     1
   3163   3165     1
   3163   3168     1
   3163   3186     1
   3163   3175     1
   3163   3176     1
   3164   3165     1
   3164   3168     1
   3164   3186     1
   3164   3175     1
   3164   3176     1
   3165   3169     1
   3165   3170     1
   3165   3184     1
   3165   3185     1
   3166   3168     1
   3166   3183     1
   3166   3178     1
   3166   3179     1
   3167   3168     1
   3167   3183     1
   3167   3178     1
   3167   3179     1
   3168   3181     1
   3168   3182     1
   3169   3180     1
   3169   3172     1
   3169   3173     1
   3170   3180     1
   3170   3172     1
   3170   3173     1
   3172   3189     1
   3172   3181     1
   3172   3182     1
   3173   3189     1
   3173   3181     1
   3173   3182     1
   3175   6629     1
   3175   3187     1
   3175   3188     1
   3176   6629     1
   3176   3187     1
   3176   3188     1
   3178   6598     1
   3178   3184     1
   3178   3185     1
   3179   6598     1
   3179   3184     1
   3179   3185     1
   3183   6569     1
   3183   6570     1
   3184   6568     1
   3185   6568     1
   3186   6600     1
   3186   6601     1
   3187   6599     1
   3188   6599     1
   3190   3204     1
   3190   3205     1
   3190   3207     1
   3190   3208     1
   3190   3201     1
   3190   3202     1
   3191   3195     1
   3191   3196     1
   3191   3198     1
   3191   3199     1
   3191   3216     1
   3191   3217     1
   3192   3194     1
   3192   3197     1
   3192   3215     1
   3192   3204     1
   3192   3205     1
   3193   3194     1
   3193   3197     1
   3193   3215     1
   3193   3204     1
   3193   3205     1
   3194   3198     1
   3194   3199     1
   3194   3213     1
   3194   3214     1
   3195   3197     1
   3195   3212     1
   3195   3207     1
   3195   3208     1
   3196   3197     1
   3196   3212     1
   3196   3207     1
   3196   3208     1
   3197   3210     1
   3197   3211     1
   3198   3209     1
   3198   3201     1
   3198   3202     1
   3199   3209     1
   3199   3201     1
   3199   3202     1
   3201   3218     1
   3201   3210     1
   3201   3211     1
   3202   3218     1
   3202   3210     1
   3202   3211     1
   3204   6691     1
   3204   3216     1
   3204   3217     1
   3205   6691     1
   3205   3216     1
   3205   3217     1
   3207   6660     1
   3207   3213     1
   3207   3214     1
   3208   6660     1
   3208   3213     1
   3208   3214     1
   3212   6631     1
   3212   6632     1
   3213   6630     1
   3214   6630     1
   3215   6662     1
   3215   6663     1
   3216   6661     1
   3217   6661     1
   3219   3233     1
   3219   3234     1
   3219   3236     1
   3219   3237     1
   3219   3230     1
   3219   3231     1
   3220   3224     1
   3220   3225     1
   3220   3227     1
   3220   3228     1
   3220   3245     1
   3220   3246     1
   3221   3223     1
   3221   3226     1
   3221   3244     1
   3221   3233     1
   3221   3234     1
   3222   3223     1
   3222   3226     1
   3222   3244     1
   3222   3233     1
   3222   3234     1
   3223   3227     1
   3223   3228     1
   3223   3242     1
   3223   3243     1
   3224   3226     1
   3224   3241     1
   3224   3236     1
   3224   3237     1
   3225   3226     1
   3225   3241     1
   3225   3236     1
   3225   3237     1
   3226   3239     1
   3226   3240     1
   3227   3238     1
   3227   3230     1
   3227   3231     1
   3228   3238     1
   3228   3230     1
   3228   3231     1
   3230   3247     1
   3230   3239     1
   3230   3240     1
   3231   3247     1
   3231   3239     1
   3231   3240     1
   3233   6753     1
   3233   3245     1
   3233   3246     1
   3234   6753     1
   3234   3245     1
   3234   3246     1
   3236   6722     1
   3236   3242     1
   3236   3243     1
   3237   6722     1
   3237   3242     1
   3237   3243     1
   3241   6693     1
   3241   6694     1
   3242   6692     1
   3243   6692     1
   3244   6724     1
   3244   6725     1
   3245   6723     1
   3246   6723     1
   3248   3262     1
   3248   3263     1
   3248   3265     1
   3248   3266     1
   3248   3259     1
   3248   3260     1
   3249   3253     1
   3249   3254     1
   3249   3256     1
   3249   3257     1
   3249   3274     1
   3249   3275     1
   3250   3252     1
   3250   3255     1
   3250   3273     1
   3250   3262     1
   3250   3263     1
   3251   3252     1
   3251   3255     1
   3251   3273     1
   3251   3262     1
   3251   3263     1
   3252   3256     1
   3252   3257     1
   3252   3271     1
   3252   3272     1
   3253   3255     1
   3253   3270     1
   3253   3265     1
   3253   3266     1
   3254   3255     1
   3254   3270     1
   3254   3265     1
   3254   3266     1
   3255   3268     1
   3255   3269     1
   3256   3267     1
   3256   3259     1
   3256   3260     1
   3257   3267     1
   3257   3259     1
   3257   3260     1
   3259   3276     1
   3259   3268     1
   3259   3269     1
   3260   3276     1
   3260   3268     1
   3260   3269     1
   3262   6815     1
   3262   3274     1
   3262   3275     1
   3263   6815     1
   3263   3274     1
   3263   3275     1
   3265   6784     1
   3265   3271     1
   3265   3272     1
   3266   6784     1
   3266   3271     1
   3266   3272     1
   3270   6755     1
   3270   6756     1
   3271   6754     1
   3272   6754     1
   3273   6786     1
   3273   6787     1
   3274   6785     1
   3275   6785     1
   3277   3291     1
   3277   3292     1
   3277   3294     1
   3277   3295     1
   3277   3288     1
   3277   3289     1
   3278   3282     1
   3278   3283     1
   3278   3285     1
   3278   3286     1
   3278   3303     1
   3278   3304     1
   3279   3281     1
   3279   3284     1
   3279   3302     1
   3279   3291     1
   3279   3292     1
   3280   3281     1
   3280   3284     1
   3280   3302     1
   3280   3291     1
   3280   3292     1
   3281   3285     1
   3281   3286     1
   3281   3300     1
   3281   3301     1
   3282   3284     1
   3282   3299     1
   3282   3294     1
   3282   3295     1
   3283   3284     1
   3283   3299     1
   3283   3294     1
   3283   3295     1
   3284   3297     1
   3284   3298     1
   3285   3296     1
   3285   3288     1
   3285   3289     1
   3286   3296     1
   3286   3288     1
   3286   3289     1
   3288   3305     1
   3288   3297     1
   3288   3298     1
   3289   3305     1
   3289   3297     1
   3289   3298     1
   3291   6877     1
   3291   3303     1
   3291   3304     1
   3292   6877     1
   3292   3303     1
   3292   3304     1
   3294   6846     1
   3294   3300     1
   3294   3301     1
   3295   6846     1
   3295   3300     1
   3295   3301     1
   3299   6817     1
   3299   6818     1
   3300   6816     1
   3301   6816     1
   3302   6848     1
   3302   6849     1
   3303   6847     1
   3304   6847     1
   3306   3320     1
   3306   3321     1
   3306   3323     1
   3306   3324     1
   3306   3317     1
   3306   3318     1
   3307   3311     1
   3307   3312     1
   3307   3314     1
   3307   3315     1
   3307   3332     1
   3307   3333     1
   3308   3310     1
   3308   3313     1
   3308   3331     1
   3308   3320     1
   3308   3321     1
   3309   3310     1
   3309   3313     1
   3309   3331     1
   3309   3320     1
   3309   3321     1
   3310   3314     1
   3310   3315     1
   3310   3329     1
   3310   3330     1
   3311   3313     1
   3311   3328     1
   3311   3323     1
   3311   3324     1
   3312   3313     1
   3312   3328     1
   3312   3323     1
   3312   3324     1
   3313   3326     1
   3313   3327     1
   3314   3325     1
   3314   3317     1
   3314   3318     1
   3315   3325     1
   3315   3317     1
   3315   3318     1
   3317   3334     1
   3317   3326     1
   3317   3327     1
   3318   3334     1
   3318   3326     1
   3318   3327     1
   3320   6939     1
   3320   3332     1
   3320   3333     1
   3321   6939     1
   3321   3332     1
   3321   3333     1
   3323   6908     1
   3323   3329     1
   3323   3330     1
   3324   6908     1
   3324   3329     1
   3324   3330     1
   3328   6879     1
   3328   6880     1
   3329   6878     1
   3330   6878     1
   3331   6910     1
   3331   6911     1
   3332   6909     1
   3333   6909     1
   3335   3349     1
   3335   3350     1
   3335   3352     1
   3335   3353     1
   3335   3346     1
   3335   3347     1
   3336   3340     1
   3336   3341     1
   3336   3343     1
   3336   3344     1
   3336   3361     1
   3336   3362     1
   3337   3339     1
   3337   3342     1
   3337   3360     1
   3337   3349     1
   3337   3350     1
   3338   3339     1
   3338   3342     1
   3338   3360     1
   3338   3349     1
   3338   3350     1
   3339   3343     1
   3339   3344     1
   3339   3358     1
   3339   3359     1
   3340   3342     1
   3340   3357     1
   3340   3352     1
   3340   3353     1
   3341   3342     1
   3341   3357     1
   3341   3352     1
   3341   3353     1
   3342   3355     1
   3342   3356     1
   3343   3354     1
   3343   3346     1
   3343   3347     1
   3344   3354     1
   3344   3346     1
   3344   3347     1
   3346   3363     1
   3346   3355     1
   3346   3356     1
   3347   3363     1
   3347   3355     1
   3347   3356     1
   3349   7001     1
   3349   3361     1
   3349   3362     1
   3350   7001     1
   3350   3361     1
   3350   3362     1
   3352   6970     1
   3352   3358     1
   3352   3359     1
   3353   6970     1
   3353   3358     1
   3353   3359     1
   3357   6941     1
   3357   6942     1
   3358   6940     1
   3359   6940     1
   3360   6972     1
   3360   6973     1
   3361   6971     1
   3362   6971     1
   3364   3378     1
   3364   3379     1
   3364   3381     1
   3364   3382     1
   3364   3375     1
   3364   3376     1
   3365   3369     1
   3365   3370     1
   3365   3372     1
   3365   3373     1
   3365   3390     1
   3365   3391     1
   3366   3368     1
   3366   3371     1
   3366   3389     1
   3366   3378     1
   3366   3379     1
   3367   3368     1
   3367   3371     1
   3367   3389     1
   3367   3378     1
   3367   3379     1
   3368   3372     1
   3368   3373     1
   3368   3387     1
   3368   3388     1
   3369   3371     1
   3369   3386     1
   3369   3381     1
   3369   3382     1
   3370   3371     1
   3370   3386     1
   3370   3381     1
   3370   3382     1
   3371   3384     1
   3371   3385     1
   3372   3383     1
   3372   3375     1
   3372   3376     1
   3373   3383     1
   3373   3375     1
   3373   3376     1
   3375   3392     1
   3375   3384     1
   3375   3385     1
   3376   3392     1
   3376   3384     1
   3376   3385     1
   3378   7063     1
   3378   3390     1
   3378   3391     1
   3379   7063     1
   3379   3390     1
   3379   3391     1
   3381   7032     1
   3381   3387     1
   3381   3388     1
   3382   7032     1
   3382   3387     1
   3382   3388     1
   3386   7003     1
   3386   7004     1
   3387   7002     1
   3388   7002     1
   3389   7034     1
   3389   7035     1
   3390   7033     1
   3391   7033     1
   3393   3407     1
   3393   3408     1
   3393   3410     1
   3393   3411     1
   3393   3404     1
   3393   3405     1
   3394   3398     1
   3394   3399     1
   3394   3401     1
   3394   3402     1
   3394   3419     1
   3394   3420     1
   3395   3397     1
   3395   3400     1
   3395   3418     1
   3395   3407     1
   3395   3408     1
   3396   3397     1
   3396   3400     1
   3396   3418     1
   3396   3407     1
   3396   3408     1
   3397   3401     1
   3397   3402     1
   3397   3416     1
   3397   3417     1
   3398   3400     1
   3398   3415     1
   3398   3410     1
   3398   3411     1
   3399   3400     1
   3399   3415     1
   3399   3410     1
   3399   3411     1
   3400   3413     1
   3400   3414     1
   3401   3412     1
   3401   3404     1
   3401   3405     1
   3402   3412     1
   3402   3404     1
   3402   3405     1
   3404   3421     1
   3404   3413     1
   3404   3414     1
   3405   3421     1
   3405   3413     1
   3405   3414     1
   3407   7125     1
   3407   3419     1
   3407   3420     1
   3408   7125     1
   3408   3419     1
   3408   3420     1
   3410   7094     1
   3410   3416     1
   3410   3417     1
   3411   7094     1
   3411   3416     1
   3411   3417     1
   3415   7065     1
   3415   7066     1
   3416   7064     1
   3417   7064     1
   3418   7096     1
   3418   7097     1
   3419   7095     1
   3420   7095     1
   3422   3436     1
   3422   3437     1
   3422   3439     1
   3422   3440     1
   3422   3433     1
   3422   3434     1
   3423   3427     1
   3423   3428     1
   3423   3430     1
   3423   3431     1
   3423   3448     1
   3423   3449     1
   3424   3426     1
   3424   3429     1
   3424   3447     1
   3424   3436     1
   3424   3437     1
   3425   3426     1
   3425   3429     1
   3425   3447     1
   3425   3436     1
   3425   3437     1
   3426   3430     1
   3426   3431     1
   3426   3445     1
   3426   3446     1
   3427   3429     1
   3427   3444     1
   3427   3439     1
   3427   3440     1
   3428   3429     1
   3428   3444     1
   3428   3439     1
   3428   3440     1
   3429   3442     1
   3429   3443     1
   3430   3441     1
   3430   3433     1
   3430   3434     1
   3431   3441     1
   3431   3433     1
   3431   3434     1
   3433   3450     1
   3433   3442     1
   3433   3443     1
   3434   3450     1
   3434   3442     1
   3434   3443     1
   3436   7187     1
   3436   3448     1
   3436   3449     1
   3437   7187     1
   3437   3448     1
   3437   3449     1
   3439   7156     1
   3439   3445     1
   3439   3446     1
   3440   7156     1
   3440   3445     1
   3440   3446     1
   3444   7127     1
   3444   7128     1
   3445   7126     1
   3446   7126     1
   3447   7158     1
   3447   7159     1
   3448   7157     1
   3449   7157     1
   3451   3465     1
   3451   3466     1
   3451   3468     1
   3451   3469     1
   3451   3462     1
   3451   3463     1
   3452   3456     1
   3452   3457     1
   3452   3459     1
   3452   3460     1
   3452   3477     1
   3452   3478     1
   3453   3455     1
   3453   3458     1
   3453   3476     1
   3453   3465     1
   3453   3466     1
   3454   3455     1
   3454   3458     1
   3454   3476     1
   3454   3465     1
   3454   3466     1
   3455   3459     1
   3455   3460     1
   3455   3474     1
   3455   3475     1
   3456   3458     1
   3456   3473     1
   3456   3468     1
   3456   3469     1
   3457   3458     1
   3457   3473     1
   3457   3468     1
   3457   3469     1
   3458   3471     1
   3458   3472     1
   3459   3470     1
   3459   3462     1
   3459   3463     1
   3460   3470     1
   3460   3462     1
   3460   3463     1
   3462   3479     1
   3462   3471     1
   3462   3472     1
   3463   3479     1
   3463   3471     1
   3463   3472     1
   3465   7249     1
   3465   3477     1
   3465   3478     1
   3466   7249     1
   3466   3477     1
   3466   3478     1
   3468   7218     1
   3468   3474     1
   3468   3475     1
   3469   7218     1
   3469   3474     1
   3469   3475     1
   3473   7189     1
   3473   7190     1
   3474   7188     1
   3475   7188     1
   3476   7220     1
   3476   7221     1
   3477   7219     1
   3478   7219     1
   3480   3494     1
   3480   3495     1
   3480   3497     1
   3480   3498     1
   3480   3491     1
   3480   3492     1
   3481   3485     1
   3481   3486     1
   3481   3488     1
   3481   3489     1
   3481   3506     1
   3481   3507     1
   3482   3484     1
   3482   3487     1
   3482   3505     1
   3482   3494     1
   3482   3495     1
   3483   3484     1
   3483   3487     1
   3483   3505     1
   3483   3494     1
   3483   3495     1
   3484   3488     1
   3484   3489     1
   3484   3503     1
   3484   3504     1
   3485   3487     1
   3485   3502     1
   3485   3497     1
   3485   3498     1
   3486   3487     1
   3486   3502     1
   3486   3497     1
   3486   3498     1
   3487   3500     1
   3487   3501     1
   3488   3499     1
   3488   3491     1
   3488   3492     1
   3489   3499     1
   3489   3491     1
   3489   3492     1
   3491   3508     1
   3491   3500     1
   3491   3501     1
   3492   3508     1
   3492   3500     1
   3492   3501     1
   3494   7311     1
   3494   3506     1
   3494   3507     1
   3495   7311     1
   3495   3506     1
   3495   3507     1
   3497   7280     1
   3497   3503     1
   3497   3504     1
   3498   7280     1
   3498   3503     1
   3498   3504     1
   3502   7251     1
   3502   7252     1
   3503   7250     1
   3504   7250     1
   3505   7282     1
   3505   7283     1
   3506   7281     1
   3507   7281     1
   3509   3523     1
   3509   3524     1
   3509   3526     1
   3509   3527     1
   3509   3520     1
   3509   3521     1
   3510   3514     1
   3510   3515     1
   3510   3517     1
   3510   3518     1
   3510   3535     1
   3510   3536     1
   3511   3513     1
   3511   3516     1
   3511   3534     1
   3511   3523     1
   3511   3524     1
   3512   3513     1
   3512   3516     1
   3512   3534     1
   3512   3523     1
   3512   3524     1
   3513   3517     1
   3513   3518     1
   3513   3532     1
   3513   3533     1
   3514   3516     1
   3514   3531     1
   3514   3526     1
   3514   3527     1
   3515   3516     1
   3515   3531     1
   3515   3526     1
   3515   3527     1
   3516   3529     1
   3516   3530     1
   3517   3528     1
   3517   3520     1
   3517   3521     1
   3518   3528     1
   3518   3520     1
   3518   3521     1
   3520   3537     1
   3520   3529     1
   3520   3530     1
   3521   3537     1
   3521   3529     1
   3521   3530     1
   3523   7373     1
   3523   3535     1
   3523   3536     1
   3524   7373     1
   3524   3535     1
   3524   3536     1
   3526   7342     1
   3526   3532     1
   3526   3533     1
   3527   7342     1
   3527   3532     1
   3527   3533     1
   3531   7313     1
   3531   7314     1
   3532   7312     1
   3533   7312     1
   3534   7344     1
   3534   7345     1
   3535   7343     1
   3536   7343     1
   3538   3552     1
   3538   3553     1
   3538   3555     1
   3538   3556     1
   3538   3549     1
   3538   3550     1
   3539   3543     1
   3539   3544     1
   3539   3546     1
   3539   3547     1
   3539   3564     1
   3539   3565     1
   3540   3542     1
   3540   3545     1
   3540   3563     1
   3540   3552     1
   3540   3553     1
   3541   3542     1
   3541   3545     1
   3541   3563     1
   3541   3552     1
   3541   3553     1
   3542   3546     1
   3542   3547     1
   3542   3561     1
   3542   3562     1
   3543   3545     1
   3543   3560     1
   3543   3555     1
   3543   3556     1
   3544   3545     1
   3544   3560     1
   3544   3555     1
   3544   3556     1
   3545   3558     1
   3545   3559     1
   3546   3557     1
   3546   3549     1
   3546   3550     1
   3547   3557     1
   3547   3549     1
   3547   3550     1
   3549   3566     1
   3549   3558     1
   3549   3559     1
   3550   3566     1
   3550   3558     1
   3550   3559     1
   3552   7435     1
   3552   3564     1
   3552   3565     1
   3553   7435     1
   3553   3564     1
   3553   3565     1
   3555   7404     1
   3555   3561     1
   3555   3562     1
   3556   7404     1
   3556   3561     1
   3556   3562     1
   3560   7375     1
   3560   7376     1
   3561   7374     1
   3562   7374     1
   3563   7406     1
   3563   7407     1
   3564   7405     1
   3565   7405     1
   3567   3581     1
   3567   3582     1
   3567   3584     1
   3567   3585     1
   3567   3578     1
   3567   3579     1
   3568   3572     1
   3568   3573     1
   3568   3575     1
   3568   3576     1
   3568   3593     1
   3568   3594     1
   3569   3571     1
   3569   3574     1
   3569   3592     1
   3569   3581     1
   3569   3582     1
   3570   3571     1
   3570   3574     1
   3570   3592     1
   3570   3581     1
   3570   3582     1
   3571   3575     1
   3571   3576     1
   3571   3590     1
   3571   3591     1
   3572   3574     1
   3572   3589     1
   3572   3584     1
   3572   3585     1
   3573   3574     1
   3573   3589     1
   3573   3584     1
   3573   3585     1
   3574   3587     1
   3574   3588     1
   3575   3586     1
   3575   3578     1
   3575   3579     1
   3576   3586     1
   3576   3578     1
   3576   3579     1
   3578   3595     1
   3578   3587     1
   3578   3588     1
   3579   3595     1
   3579   3587     1
   3579   3588     1
   3581   7497     1
   3581   3593     1
   3581   3594     1
   3582   7497     1
   3582   3593     1
   3582   3594     1
   3584   7466     1
   3584   3590     1
   3584   3591     1
   3585   7466     1
   3585   3590     1
   3585   3591     1
   3589   7437     1
   3589   7438     1
   3590   7436     1
   3591   7436     1
   3592   7468     1
   3592   7469     1
   3593   7467     1
   3594   7467     1
   3596   3610     1
   3596   3611     1
   3596   3613     1
   3596   3614     1
   3596   3607     1
   3596   3608     1
   3597   3601     1
   3597   3602     1
   3597   3604     1
   3597   3605     1
   3597   3622     1
   3597   3623     1
   3598   3600     1
   3598   3603     1
   3598   3621     1
   3598   3610     1
   3598   3611     1
   3599   3600     1
   3599   3603     1
   3599   3621     1
   3599   3610     1
   3599   3611     1
   3600   3604     1
   3600   3605     1
   3600   3619     1
   3600   3620     1
   3601   3603     1
   3601   3618     1
   3601   3613     1
   3601   3614     1
   3602   3603     1
   3602   3618     1
   3602   3613     1
   3602   3614     1
   3603   3616     1
   3603   3617     1
   3604   3615     1
   3604   3607     1
   3604   3608     1
   3605   3615     1
   3605   3607     1
   3605   3608     1
   3607   3624     1
   3607   3616     1
   3607   3617     1
   3608   3624     1
   3608   3616     1
   3608   3617     1
   3610   7559     1
   3610   3622     1
   3610   3623     1
   3611   7559     1
   3611   3622     1
   3611   3623     1
   3613   7528     1
   3613   3619     1
   3613   3620     1
   3614   7528     1
   3614   3619     1
   3614   3620     1
   3618   7499     1
   3618   7500     1
   3619   7498     1
   3620   7498     1
   3621   7530     1
   3621   7531     1
   3622   7529     1
   3623   7529     1
   3625   3639     1
   3625   3640     1
   3625   3642     1
   3625   3643     1
   3625   3636     1
   3625   3637     1
   3626   3630     1
   3626   3631     1
   3626   3633     1
   3626   3634     1
   3626   3651     1
   3626   3652     1
   3627   3629     1
   3627   3632     1
   3627   3650     1
   3627   3639     1
   3627   3640     1
   3628   3629     1
   3628   3632     1
   3628   3650     1
   3628   3639     1
   3628   3640     1
   3629   3633     1
   3629   3634     1
   3629   3648     1
   3629   3649     1
   3630   3632     1
   3630   3647     1
   3630   3642     1
   3630   3643     1
   3631   3632     1
   3631   3647     1
   3631   3642     1
   3631   3643     1
   3632   3645     1
   3632   3646     1
   3633   3644     1
   3633   3636     1
   3633   3637     1
   3634   3644     1
   3634   3636     1
   3634   3637     1
   3636   3653     1
   3636   3645     1
   3636   3646     1
   3637   3653     1
   3637   3645     1
   3637   3646     1
   3639   7621     1
   3639   3651     1
   3639   3652     1
   3640   7621     1
   3640   3651     1
   3640   3652     1
   3642   7590     1
   3642   3648     1
   3642   3649     1
   3643   7590     1
   3643   3648     1
   3643   3649     1
   3647   7561     1
   3647   7562     1
   3648   7560     1
   3649   7560     1
   3650   7592     1
   3650   7593     1
   3651   7591     1
   3652   7591     1
   3654   3661     1
   3654   3662     1
   3655   3660     1
   3655   3658     1
   3655   3659     1
   3656   3660     1
   3656   3658     1
   3656   3659     1
   3658   3684     1
   3658   3663     1
   3658   3661     1
   3658   3662     1
   3659   3684     1
   3659   3663     1
   3659   3661     1
   3659   3662     1
   3660   3665     1
   3660   3666     1
   3660   3675     1
   3660   3676     1
   3661   3664     1
   3661   3674     1
   3662   3664     1
   3662   3674     1
   3663   3668     1
   3663   3669     1
   3663   3678     1
   3663   3679     1
   3664   3675     1
   3664   3676     1
   3665   3674     1
   3665   3670     1
   3665   3668     1
   3665   3669     1
   3666   3674     1
   3666   3670     1
   3666   3668     1
   3666   3669     1
   3667   3673     1
   3668   3671     1
   3668   3672     1
   3669   3671     1
   3669   3672     1
   3671   3673     1
   3675   3680     1
   3675   3678     1
   3675   3679     1
   3676   3680     1
   3676   3678     1
   3676   3679     1
   3677   3683     1
   3678   3681     1
   3678   3682     1
   3679   3681     1
   3679   3682     1
   3681   3683     1
   3685   3692     1
   3685   3693     1
   3686   3691     1
   3686   3689     1
   3686   3690     1
   3687   3691     1
   3687   3689     1
   3687   3690     1
   3689   3694     1
   3689   3692     1
   3689   3693     1
   3689   3715     1
   3690   3694     1
   3690   3692     1
   3690   3693     1
   3690   3715     1
   3691   3696     1
   3691   3697     1
   3691   3706     1
   3691   3707     1
   3692   3695     1
   3692   3705     1
   3693   3695     1
   3693   3705     1
   3694   3699     1
   3694   3700     1
   3694   3709     1
   3694   3710     1
   3695   3706     1
   3695   3707     1
   3696   3701     1
   3696   3699     1
   3696   3700     1
   3696   3705     1
   3697   3701     1
   3697   3699     1
   3697   3700     1
   3697   3705     1
   3698   3704     1
   3699   3702     1
   3699   3703     1
   3700   3702     1
   3700   3703     1
   3702   3704     1
   3706   3711     1
   3706   3709     1
   3706   3710     1
   3707   3711     1
   3707   3709     1
   3707   3710     1
   3708   3714     1
   3709   3712     1
   3709   3713     1
   3710   3712     1
   3710   3713     1
   3712   3714     1
   3716   3723     1
   3716   3724     1
   3717   3722     1
   3717   3720     1
   3717   3721     1
   3718   3722     1
   3718   3720     1
   3718   3721     1
   3720   3746     1
   3720   3725     1
   3720   3723     1
   3720   3724     1
   3721   3746     1
   3721   3725     1
   3721   3723     1
   3721   3724     1
   3722   3727     1
   3722   3728     1
   3722   3737     1
   3722   3738     1
   3723   3726     1
   3723   3736     1
   3724   3726     1
   3724   3736     1
   3725   3730     1
   3725   3731     1
   3725   3740     1
   3725   3741     1
   3726   3737     1
   3726   3738     1
   3727   3736     1
   3727   3732     1
   3727   3730     1
   3727   3731     1
   3728   3736     1
   3728   3732     1
   3728   3730     1
   3728   3731     1
   3729   3735     1
   3730   3733     1
   3730   3734     1
   3731   3733     1
   3731   3734     1
   3733   3735     1
   3737   3742     1
   3737   3740     1
   3737   3741     1
   3738   3742     1
   3738   3740     1
   3738   3741     1
   3739   3745     1
   3740   3743     1
   3740   3744     1
   3741   3743     1
   3741   3744     1
   3743   3745     1
   3747   3754     1
   3747   3755     1
   3748   3753     1
   3748   3751     1
   3748   3752     1
   3749   3753     1
   3749   3751     1
   3749   3752     1
   3751   3756     1
   3751   3754     1
   3751   3755     1
   3751   3777     1
   3752   3756     1
   3752   3754     1
   3752   3755     1
   3752   3777     1
   3753   3758     1
   3753   3759     1
   3753   3768     1
   3753   3769     1
   3754   3757     1
   3754   3767     1
   3755   3757     1
   3755   3767     1
   3756   3761     1
   3756   3762     1
   3756   3771     1
   3756   3772     1
   3757   3768     1
   3757   3769     1
   3758   3763     1
   3758   3761     1
   3758   3762     1
   3758   3767     1
   3759   3763     1
   3759   3761     1
   3759   3762     1
   3759   3767     1
   3760   3766     1
   3761   3764     1
   3761   3765     1
   3762   3764     1
   3762   3765     1
   3764   3766     1
   3768   3773     1
   3768   3771     1
   3768   3772     1
   3769   3773     1
   3769   3771     1
   3769   3772     1
   3770   3776     1
   3771   3774     1
   3771   3775     1
   3772   3774     1
   3772   3775     1
   3774   3776     1
   3778   3785     1
   3778   3786     1
   3779   3784     1
   3779   3782     1
   3779   3783     1
   3780   3784     1
   3780   3782     1
   3780   3783     1
   3782   3808     1
   3782   3787     1
   3782   3785     1
   3782   3786     1
   3783   3808     1
   3783   3787     1
   3783   3785     1
   3783   3786     1
   3784   3789     1
   3784   3790     1
   3784   3799     1
   3784   3800     1
   3785   3788     1
   3785   3798     1
   3786   3788     1
   3786   3798     1
   3787   3792     1
   3787   3793     1
   3787   3802     1
   3787   3803     1
   3788   3799     1
   3788   3800     1
   3789   3798     1
   3789   3794     1
   3789   3792     1
   3789   3793     1
   3790   3798     1
   3790   3794     1
   3790   3792     1
   3790   3793     1
   3791   3797     1
   3792   3795     1
   3792   3796     1
   3793   3795     1
   3793   3796     1
   3795   3797     1
   3799   3804     1
   3799   3802     1
   3799   3803     1
   3800   3804     1
   3800   3802     1
   3800   3803     1
   3801   3807     1
   3802   3805     1
   3802   3806     1
   3803   3805     1
   3803   3806     1
   3805   3807     1
   3809   3816     1
   3809   3817     1
   3810   3815     1
   3810   3813     1
   3810   3814     1
   3811   3815     1
   3811   3813     1
   3811   3814     1
   3813   3818     1
   3813   3816     1
   3813   3817     1
   3813   3839     1
   3814   3818     1
   3814   3816     1
   3814   3817     1
   3814   3839     1
   3815   3820     1
   3815   3821     1
   3815   3830     1
   3815   3831     1
   3816   3819     1
   3816   3829     1
   3817   3819     1
   3817   3829     1
   3818   3823     1
   3818   3824     1
   3818   3833     1
   3818   3834     1
   3819   3830     1
   3819   3831     1
   3820   3825     1
   3820   3823     1
   3820   3824     1
   3820   3829     1
   3821   3825     1
   3821   3823     1
   3821   3824     1
   3821   3829     1
   3822   3828     1
   3823   3826     1
   3823   3827     1
   3824   3826     1
   3824   3827     1
   3826   3828     1
   3830   3835     1
   3830   3833     1
   3830   3834     1
   3831   3835     1
   3831   3833     1
   3831   3834     1
   3832   3838     1
   3833   3836     1
   3833   3837     1
   3834   3836     1
   3834   3837     1
   3836   3838     1
   3840   3847     1
   3840   3848     1
   3841   3846     1
   3841   3844     1
   3841   3845     1
   3842   3846     1
   3842   3844     1
   3842   3845     1
   3844   3870     1
   3844   3849     1
   3844   3847     1
   3844   3848     1
   3845   3870     1
   3845   3849     1
   3845   3847     1
   3845   3848     1
   3846   3851     1
   3846   3852     1
   3846   3861     1
   3846   3862     1
   3847   3850     1
   3847   3860     1
   3848   3850     1
   3848   3860     1
   3849   3854     1
   3849   3855     1
   3849   3864     1
   3849   3865     1
   3850   3861     1
   3850   3862     1
   3851   3860     1
   3851   3856     1
   3851   3854     1
   3851   3855     1
   3852   3860     1
   3852   3856     1
   3852   3854     1
   3852   3855     1
   3853   3859     1
   3854   3857     1
   3854   3858     1
   3855   3857     1
   3855   3858     1
   3857   3859     1
   3861   3866     1
   3861   3864     1
   3861   3865     1
   3862   3866     1
   3862   3864     1
   3862   3865     1
   3863   3869     1
   3864   3867     1
   3864   3868     1
   3865   3867     1
   3865   3868     1
   3867   3869     1
   3871   3878     1
   3871   3879     1
   3872   3877     1
   3872   3875     1
   3872   3876     1
   3873   3877     1
   3873   3875     1
   3873   3876     1
   3875   3880     1
   3875   3878     1
   3875   3879     1
   3875   3901     1
   3876   3880     1
   3876   3878     1
   3876   3879     1
   3876   3901     1
   3877   3882     1
   3877   3883     1
   3877   3892     1
   3877   3893     1
   3878   3881     1
   3878   3891     1
   3879   3881     1
   3879   3891     1
   3880   3885     1
   3880   3886     1
   3880   3895     1
   3880   3896     1
   3881   3892     1
   3881   3893     1
   3882   3887     1
   3882   3885     1
   3882   3886     1
   3882   3891     1
   3883   3887     1
   3883   3885     1
   3883   3886     1
   3883   3891     1
   3884   3890     1
   3885   3888     1
   3885   3889     1
   3886   3888     1
   3886   3889     1
   3888   3890     1
   3892   3897     1
   3892   3895     1
   3892   3896     1
   3893   3897     1
   3893   3895     1
   3893   3896     1
   3894   3900     1
   3895   3898     1
   3895   3899     1
   3896   3898     1
   3896   3899     1
   3898   3900     1
   3902   3909     1
   3902   3910     1
   3903   3908     1
   3903   3906     1
   3903   3907     1
   3904   3908     1
   3904   3906     1
   3904   3907     1
   3906   3932     1
   3906   3911     1
   3906   3909     1
   3906   3910     1
   3907   3932     1
   3907   3911     1
   3907   3909     1
   3907   3910     1
   3908   3913     1
   3908   3914     1
   3908   3923     1
   3908   3924     1
   3909   3912     1
   3909   3922     1
   3910   3912     1
   3910   3922     1
   3911   3916     1
   3911   3917     1
   3911   3926     1
   3911   3927     1
   3912   3923     1
   3912   3924     1
   3913   3922     1
   3913   3918     1
   3913   3916     1
   3913   3917     1
   3914   3922     1
   3914   3918     1
   3914   3916     1
   3914   3917     1
   3915   3921     1
   3916   3919     1
   3916   3920     1
   3917   3919     1
   3917   3920     1
   3919   3921     1
   3923   3928     1
   3923   3926     1
   3923   3927     1
   3924   3928     1
   3924   3926     1
   3924   3927     1
   3925   3931     1
   3926   3929     1
   3926   3930     1
   3927   3929     1
   3927   3930     1
   3929   3931     1
   3933   3940     1
   3933   3941     1
   3934   3939     1
   3934   3937     1
   3934   3938     1
   3935   3939     1
   3935   3937     1
   3935   3938     1
   3937   3942     1
   3937   3940     1
   3937   3941     1
   3937   3963     1
   3938   3942     1
   3938   3940     1
   3938   3941     1
   3938   3963     1
   3939   3944     1
   3939   3945     1
   3939   3954     1
   3939   3955     1
   3940   3943     1
   3940   3953     1
   3941   3943     1
   3941   3953     1
   3942   3947     1
   3942   3948     1
   3942   3957     1
   3942   3958     1
   3943   3954     1
   3943   3955     1
   3944   3949     1
   3944   3947     1
   3944   3948     1
   3944   3953     1
   3945   3949     1
   3945   3947     1
   3945   3948     1
   3945   3953     1
   3946   3952     1
   3947   3950     1
   3947   3951     1
   3948   3950     1
   3948   3951     1
   3950   3952     1
   3954   3959     1
   3954   3957     1
   3954   3958     1
   3955   3959     1
   3955   3957     1
   3955   3958     1
   3956   3962     1
   3957   3960     1
   3957   3961     1
   3958   3960     1
   3958   3961     1
   3960   3962     1
   3964   3971     1
   3964   3972     1
   3965   3970     1
   3965   3968     1
   3965   3969     1
   3966   3970     1
   3966   3968     1
   3966   3969     1
   3968   3994     1
   3968   3973     1
   3968   3971     1
   3968   3972     1
   3969   3994     1
   3969   3973     1
   3969   3971     1
   3969   3972     1
   3970   3975     1
   3970   3976     1
   3970   3985     1
   3970   3986     1
   3971   3974     1
   3971   3984     1
   3972   3974     1
   3972   3984     1
   3973   3978     1
   3973   3979     1
   3973   3988     1
   3973   3989     1
   3974   3985     1
   3974   3986     1
   3975   3984     1
   3975   3980     1
   3975   3978     1
   3975   3979     1
   3976   3984     1
   3976   3980     1
   3976   3978     1
   3976   3979     1
   3977   3983     1
   3978   3981     1
   3978   3982     1
   3979   3981     1
   3979   3982     1
   3981   3983     1
   3985   3990     1
   3985   3988     1
   3985   3989     1
   3986   3990     1
   3986   3988     1
   3986   3989     1
   3987   3993     1
   3988   3991     1
   3988   3992     1
   3989   3991     1
   3989   3992     1
   3991   3993     1
   3995   4002     1
   3995   4003     1
   3996   4001     1
   3996   3999     1
   3996   4000     1
   3997   4001     1
   3997   3999     1
   3997   4000     1
   3999   4004     1
   3999   4002     1
   3999   4003     1
   3999   4025     1
   4000   4004     1
   4000   4002     1
   4000   4003     1
   4000   4025     1
   4001   4006     1
   4001   4007     1
   4001   4016     1
   4001   4017     1
   4002   4005     1
   4002   4015     1
   4003   4005     1
   4003   4015     1
   4004   4009     1
   4004   4010     1
   4004   4019     1
   4004   4020     1
   4005   4016     1
   4005   4017     1
   4006   4011     1
   4006   4009     1
   4006   4010     1
   4006   4015     1
   4007   4011     1
   4007   4009     1
   4007   4010     1
   4007   4015     1
   4008   4014     1
   4009   4012     1
   4009   4013     1
   4010   4012     1
   4010   4013     1
   4012   4014     1
   4016   4021     1
   4016   4019     1
   4016   4020     1
   4017   4021     1
   4017   4019     1
   4017   4020     1
   4018   4024     1
   4019   4022     1
   4019   4023     1
   4020   4022     1
   4020   4023     1
   4022   4024     1
   4026   4033     1
   4026   4034     1
   4027   4032     1
   4027   4030     1
   4027   4031     1
   4028   4032     1
   4028   4030     1
   4028   4031     1
   4030   4056     1
   4030   4035     1
   4030   4033     1
   4030   4034     1
   4031   4056     1
   4031   4035     1
   4031   4033     1
   4031   4034     1
   4032   4037     1
   4032   4038     1
   4032   4047     1
   4032   4048     1
   4033   4036     1
   4033   4046     1
   4034   4036     1
   4034   4046     1
   4035   4040     1
   4035   4041     1
   4035   4050     1
   4035   4051     1
   4036   4047     1
   4036   4048     1
   4037   4046     1
   4037   4042     1
   4037   4040     1
   4037   4041     1
   4038   4046     1
   4038   4042     1
   4038   4040     1
   4038   4041     1
   4039   4045     1
   4040   4043     1
   4040   4044     1
   4041   4043     1
   4041   4044     1
   4043   4045     1
   4047   4052     1
   4047   4050     1
   4047   4051     1
   4048   4052     1
   4048   4050     1
   4048   4051     1
   4049   4055     1
   4050   4053     1
   4050   4054     1
   4051   4053     1
   4051   4054     1
   4053   4055     1
   4057   4064     1
   4057   4065     1
   4058   4063     1
   4058   4061     1
   4058   4062     1
   4059   4063     1
   4059   4061     1
   4059   4062     1
   4061   4066     1
   4061   4064     1
   4061   4065     1
   4061   4087     1
   4062   4066     1
   4062   4064     1
   4062   4065     1
   4062   4087     1
   4063   4068     1
   4063   4069     1
   4063   4078     1
   4063   4079     1
   4064   4067     1
   4064   4077     1
   4065   4067     1
   4065   4077     1
   4066   4071     1
   4066   4072     1
   4066   4081     1
   4066   4082     1
   4067   4078     1
   4067   4079     1
   4068   4073     1
   4068   4071     1
   4068   4072     1
   4068   4077     1
   4069   4073     1
   4069   4071     1
   4069   4072     1
   4069   4077     1
   4070   4076     1
   4071   4074     1
   4071   4075     1
   4072   4074     1
   4072   4075     1
   4074   4076     1
   4078   4083     1
   4078   4081     1
   4078   4082     1
   4079   4083     1
   4079   4081     1
   4079   4082     1
   4080   4086     1
   4081   4084     1
   4081   4085     1
   4082   4084     1
   4082   4085     1
   4084   4086     1
   4088   4095     1
   4088   4096     1
   4089   4094     1
   4089   4092     1
   4089   4093     1
   4090   4094     1
   4090   4092     1
   4090   4093     1
   4092   4118     1
   4092   4097     1
   4092   4095     1
   4092   4096     1
   4093   4118     1
   4093   4097     1
   4093   4095     1
   4093   4096     1
   4094   4099     1
   4094   4100     1
   4094   4109     1
   4094   4110     1
   4095   4098     1
   4095   4108     1
   4096   4098     1
   4096   4108     1
   4097   4102     1
   4097   4103     1
   4097   4112     1
   4097   4113     1
   4098   4109     1
   4098   4110     1
   4099   4108     1
   4099   4104     1
   4099   4102     1
   4099   4103     1
   4100   4108     1
   4100   4104     1
   4100   4102     1
   4100   4103     1
   4101   4107     1
   4102   4105     1
   4102   4106     1
   4103   4105     1
   4103   4106     1
   4105   4107     1
   4109   4114     1
   4109   4112     1
   4109   4113     1
   4110   4114     1
   4110   4112     1
   4110   4113     1
   4111   4117     1
   4112   4115     1
   4112   4116     1
   4113   4115     1
   4113   4116     1
   4115   4117     1
   4119   4126     1
   4119   4127     1
   4120   4125     1
   4120   4123     1
   4120   4124     1
   4121   4125     1
   4121   4123     1
   4121   4124     1
   4123   4128     1
   4123   4126     1
   4123   4127     1
   4123   4149     1
   4124   4128     1
   4124   4126     1
   4124   4127     1
   4124   4149     1
   4125   4130     1
   4125   4131     1
   4125   4140     1
   4125   4141     1
   4126   4129     1
   4126   4139     1
   4127   4129     1
   4127   4139     1
   4128   4133     1
   4128   4134     1
   4128   4143     1
   4128   4144     1
   4129   4140     1
   4129   4141     1
   4130   4135     1
   4130   4133     1
   4130   4134     1
   4130   4139     1
   4131   4135     1
   4131   4133     1
   4131   4134     1
   4131   4139     1
   4132   4138     1
   4133   4136     1
   4133   4137     1
   4134   4136     1
   4134   4137     1
   4136   4138     1
   4140   4145     1
   4140   4143     1
   4140   4144     1
   4141   4145     1
   4141   4143     1
   4141   4144     1
   4142   4148     1
   4143   4146     1
   4143   4147     1
   4144   4146     1
   4144   4147     1
   4146   4148     1
   4150   4157     1
   4150   4158     1
   4151   4156     1
   4151   4154     1
   4151   4155     1
   4152   4156     1
   4152   4154     1
   4152   4155     1
   4154   4180     1
   4154   4159     1
   4154   4157     1
   4154   4158     1
   4155   4180     1
   4155   4159     1
   4155   4157     1
   4155   4158     1
   4156   4161     1
   4156   4162     1
   4156   4171     1
   4156   4172     1
   4157   4160     1
   4157   4170     1
   4158   4160     1
   4158   4170     1
   4159   4164     1
   4159   4165     1
   4159   4174     1
   4159   4175     1
   4160   4171     1
   4160   4172     1
   4161   4170     1
   4161   4166     1
   4161   4164     1
   4161   4165     1
   4162   4170     1
   4162   4166     1
   4162   4164     1
   4162   4165     1
   4163   4169     1
   4164   4167     1
   4164   4168     1
   4165   4167     1
   4165   4168     1
   4167   4169     1
   4171   4176     1
   4171   4174     1
   4171   4175     1
   4172   4176     1
   4172   4174     1
   4172   4175     1
   4173   4179     1
   4174   4177     1
   4174   4178     1
   4175   4177     1
   4175   4178     1
   4177   4179     1
   4181   4188     1
   4181   4189     1
   4182   4187     1
   4182   4185     1
   4182   4186     1
   4183   4187     1
   4183   4185     1
   4183   4186     1
   4185   4190     1
   4185   4188     1
   4185   4189     1
   4185   4211     1
   4186   4190     1
   4186   4188     1
   4186   4189     1
   4186   4211     1
   4187   4192     1
   4187   4193     1
   4187   4202     1
   4187   4203     1
   4188   4191     1
   4188   4201     1
   4189   4191     1
   4189   4201     1
   4190   4195     1
   4190   4196     1
   4190   4205     1
   4190   4206     1
   4191   4202     1
   4191   4203     1
   4192   4197     1
   4192   4195     1
   4192   4196     1
   4192   4201     1
   4193   4197     1
   4193   4195     1
   4193   4196     1
   4193   4201     1
   4194   4200     1
   4195   4198     1
   4195   4199     1
   4196   4198     1
   4196   4199     1
   4198   4200     1
   4202   4207     1
   4202   4205     1
   4202   4206     1
   4203   4207     1
   4203   4205     1
   4203   4206     1
   4204   4210     1
   4205   4208     1
   4205   4209     1
   4206   4208     1
   4206   4209     1
   4208   4210     1
   4212   4219     1
   4212   4220     1
   4213   4218     1
   4213   4216     1
   4213   4217     1
   4214   4218     1
   4214   4216     1
   4214   4217     1
   4216   4242     1
   4216   4221     1
   4216   4219     1
   4216   4220     1
   4217   4242     1
   4217   4221     1
   4217   4219     1
   4217   4220     1
   4218   4223     1
   4218   4224     1
   4218   4233     1
   4218   4234     1
   4219   4222     1
   4219   4232     1
   4220   4222     1
   4220   4232     1
   4221   4226     1
   4221   4227     1
   4221   4236     1
   4221   4237     1
   4222   4233     1
   4222   4234     1
   4223   4232     1
   4223   4228     1
   4223   4226     1
   4223   4227     1
   4224   4232     1
   4224   4228     1
   4224   4226     1
   4224   4227     1
   4225   4231     1
   4226   4229     1
   4226   4230     1
   4227   4229     1
   4227   4230     1
   4229   4231     1
   4233   4238     1
   4233   4236     1
   4233   4237     1
   4234   4238     1
   4234   4236     1
   4234   4237     1
   4235   4241     1
   4236   4239     1
   4236   4240     1
   4237   4239     1
   4237   4240     1
   4239   4241     1
   4243   4250     1
   4243   4251     1
   4244   4249     1
   4244   4247     1
   4244   4248     1
   4245   4249     1
   4245   4247     1
   4245   4248     1
   4247   4252     1
   4247   4250     1
   4247   4251     1
   4247   4273     1
   4248   4252     1
   4248   4250     1
   4248   4251     1
   4248   4273     1
   4249   4254     1
   4249   4255     1
   4249   4264     1
   4249   4265     1
   4250   4253     1
   4250   4263     1
   4251   4253     1
   4251   4263     1
   4252   4257     1
   4252   4258     1
   4252   4267     1
   4252   4268     1
   4253   4264     1
   4253   4265     1
   4254   4259     1
   4254   4257     1
   4254   4258     1
   4254   4263     1
   4255   4259     1
   4255   4257     1
   4255   4258     1
   4255   4263     1
   4256   4262     1
   4257   4260     1
   4257   4261     1
   4258   4260     1
   4258   4261     1
   4260   4262     1
   4264   4269     1
   4264   4267     1
   4264   4268     1
   4265   4269     1
   4265   4267     1
   4265   4268     1
   4266   4272     1
   4267   4270     1
   4267   4271     1
   4268   4270     1
   4268   4271     1
   4270   4272     1
   4274   4281     1
   4274   4282     1
   4275   4280     1
   4275   4278     1
   4275   4279     1
   4276   4280     1
   4276   4278     1
   4276   4279     1
   4278   4304     1
   4278   4283     1
   4278   4281     1
   4278   4282     1
   4279   4304     1
   4279   4283     1
   4279   4281     1
   4279   4282     1
   4280   4285     1
   4280   4286     1
   4280   4295     1
   4280   4296     1
   4281   4284     1
   4281   4294     1
   4282   4284     1
   4282   4294     1
   4283   4288     1
   4283   4289     1
   4283   4298     1
   4283   4299     1
   4284   4295     1
   4284   4296     1
   4285   4294     1
   4285   4290     1
   4285   4288     1
   4285   4289     1
   4286   4294     1
   4286   4290     1
   4286   4288     1
   4286   4289     1
   4287   4293     1
   4288   4291     1
   4288   4292     1
   4289   4291     1
   4289   4292     1
   4291   4293     1
   4295   4300     1
   4295   4298     1
   4295   4299     1
   4296   4300     1
   4296   4298     1
   4296   4299     1
   4297   4303     1
   4298   4301     1
   4298   4302     1
   4299   4301     1
   4299   4302     1
   4301   4303     1
   4305   4312     1
   4305   4313     1
   4306   4311     1
   4306   4309     1
   4306   4310     1
   4307   4311     1
   4307   4309     1
   4307   4310     1
   4309   4314     1
   4309   4312     1
   4309   4313     1
   4309   4335     1
   4310   4314     1
   4310   4312     1
   4310   4313     1
   4310   4335     1
   4311   4316     1
   4311   4317     1
   4311   4326     1
   4311   4327     1
   4312   4315     1
   4312   4325     1
   4313   4315     1
   4313   4325     1
   4314   4319     1
   4314   4320     1
   4314   4329     1
   4314   4330     1
   4315   4326     1
   4315   4327     1
   4316   4321     1
   4316   4319     1
   4316   4320     1
   4316   4325     1
   4317   4321     1
   4317   4319     1
   4317   4320     1
   4317   4325     1
   4318   4324     1
   4319   4322     1
   4319   4323     1
   4320   4322     1
   4320   4323     1
   4322   4324     1
   4326   4331     1
   4326   4329     1
   4326   4330     1
   4327   4331     1
   4327   4329     1
   4327   4330     1
   4328   4334     1
   4329   4332     1
   4329   4333     1
   4330   4332     1
   4330   4333     1
   4332   4334     1
   4336   4343     1
   4336   4344     1
   4337   4342     1
   4337   4340     1
   4337   4341     1
   4338   4342     1
   4338   4340     1
   4338   4341     1
   4340   4366     1
   4340   4345     1
   4340   4343     1
   4340   4344     1
   4341   4366     1
   4341   4345     1
   4341   4343     1
   4341   4344     1
   4342   4347     1
   4342   4348     1
   4342   4357     1
   4342   4358     1
   4343   4346     1
   4343   4356     1
   4344   4346     1
   4344   4356     1
   4345   4350     1
   4345   4351     1
   4345   4360     1
   4345   4361     1
   4346   4357     1
   4346   4358     1
   4347   4356     1
   4347   4352     1
   4347   4350     1
   4347   4351     1
   4348   4356     1
   4348   4352     1
   4348   4350     1
   4348   4351     1
   4349   4355     1
   4350   4353     1
   4350   4354     1
   4351   4353     1
   4351   4354     1
   4353   4355     1
   4357   4362     1
   4357   4360     1
   4357   4361     1
   4358   4362     1
   4358   4360     1
   4358   4361     1
   4359   4365     1
   4360   4363     1
   4360   4364     1
   4361   4363     1
   4361   4364     1
   4363   4365     1
   4367   4374     1
   4367   4375     1
   4368   4373     1
   4368   4371     1
   4368   4372     1
   4369   4373     1
   4369   4371     1
   4369   4372     1
   4371   4376     1
   4371   4374     1
   4371   4375     1
   4371   4397     1
   4372   4376     1
   4372   4374     1
   4372   4375     1
   4372   4397     1
   4373   4378     1
   4373   4379     1
   4373   4388     1
   4373   4389     1
   4374   4377     1
   4374   4387     1
   4375   4377     1
   4375   4387     1
   4376   4381     1
   4376   4382     1
   4376   4391     1
   4376   4392     1
   4377   4388     1
   4377   4389     1
   4378   4383     1
   4378   4381     1
   4378   4382     1
   4378   4387     1
   4379   4383     1
   4379   4381     1
   4379   4382     1
   4379   4387     1
   4380   4386     1
   4381   4384     1
   4381   4385     1
   4382   4384     1
   4382   4385     1
   4384   4386     1
   4388   4393     1
   4388   4391     1
   4388   4392     1
   4389   4393     1
   4389   4391     1
   4389   4392     1
   4390   4396     1
   4391   4394     1
   4391   4395     1
   4392   4394     1
   4392   4395     1
   4394   4396     1
   4398   4405     1
   4398   4406     1
   4399   4404     1
   4399   4402     1
   4399   4403     1
   4400   4404     1
   4400   4402     1
   4400   4403     1
   4402   4428     1
   4402   4407     1
   4402   4405     1
   4402   4406     1
   4403   4428     1
   4403   4407     1
   4403   4405     1
   4403   4406     1
   4404   4409     1
   4404   4410     1
   4404   4419     1
   4404   4420     1
   4405   4408     1
   4405   4418     1
   4406   4408     1
   4406   4418     1
   4407   4412     1
   4407   4413     1
   4407   4422     1
   4407   4423     1
   4408   4419     1
   4408   4420     1
   4409   4418     1
   4409   4414     1
   4409   4412     1
   4409   4413     1
   4410   4418     1
   4410   4414     1
   4410   4412     1
   4410   4413     1
   4411   4417     1
   4412   4415     1
   4412   4416     1
   4413   4415     1
   4413   4416     1
   4415   4417     1
   4419   4424     1
   4419   4422     1
   4419   4423     1
   4420   4424     1
   4420   4422     1
   4420   4423     1
   4421   4427     1
   4422   4425     1
   4422   4426     1
   4423   4425     1
   4423   4426     1
   4425   4427     1
   4429   4436     1
   4429   4437     1
   4430   4435     1
   4430   4433     1
   4430   4434     1
   4431   4435     1
   4431   4433     1
   4431   4434     1
   4433   4438     1
   4433   4436     1
   4433   4437     1
   4433   4459     1
   4434   4438     1
   4434   4436     1
   4434   4437     1
   4434   4459     1
   4435   4440     1
   4435   4441     1
   4435   4450     1
   4435   4451     1
   4436   4439     1
   4436   4449     1
   4437   4439     1
   4437   4449     1
   4438   4443     1
   4438   4444     1
   4438   4453     1
   4438   4454     1
   4439   4450     1
   4439   4451     1
   4440   4445     1
   4440   4443     1
   4440   4444     1
   4440   4449     1
   4441   4445     1
   4441   4443     1
   4441   4444     1
   4441   4449     1
   4442   4448     1
   4443   4446     1
   4443   4447     1
   4444   4446     1
   4444   4447     1
   4446   4448     1
   4450   4455     1
   4450   4453     1
   4450   4454     1
   4451   4455     1
   4451   4453     1
   4451   4454     1
   4452   4458     1
   4453   4456     1
   4453   4457     1
   4454   4456     1
   4454   4457     1
   4456   4458     1
   4460   4467     1
   4460   4468     1
   4461   4466     1
   4461   4464     1
   4461   4465     1
   4462   4466     1
   4462   4464     1
   4462   4465     1
   4464   4490     1
   4464   4469     1
   4464   4467     1
   4464   4468     1
   4465   4490     1
   4465   4469     1
   4465   4467     1
   4465   4468     1
   4466   4471     1
   4466   4472     1
   4466   4481     1
   4466   4482     1
   4467   4470     1
   4467   4480     1
   4468   4470     1
   4468   4480     1
   4469   4474     1
   4469   4475     1
   4469   4484     1
   4469   4485     1
   4470   4481     1
   4470   4482     1
   4471   4480     1
   4471   4476     1
   4471   4474     1
   4471   4475     1
   4472   4480     1
   4472   4476     1
   4472   4474     1
   4472   4475     1
   4473   4479     1
   4474   4477     1
   4474   4478     1
   4475   4477     1
   4475   4478     1
   4477   4479     1
   4481   4486     1
   4481   4484     1
   4481   4485     1
   4482   4486     1
   4482   4484     1
   4482   4485     1
   4483   4489     1
   4484   4487     1
   4484   4488     1
   4485   4487     1
   4485   4488     1
   4487   4489     1
   4491   4498     1
   4491   4499     1
   4492   4497     1
   4492   4495     1
   4492   4496     1
   4493   4497     1
   4493   4495     1
   4493   4496     1
   4495   4500     1
   4495   4498     1
   4495   4499     1
   4495   4521     1
   4496   4500     1
   4496   4498     1
   4496   4499     1
   4496   4521     1
   4497   4502     1
   4497   4503     1
   4497   4512     1
   4497   4513     1
   4498   4501     1
   4498   4511     1
   4499   4501     1
   4499   4511     1
   4500   4505     1
   4500   4506     1
   4500   4515     1
   4500   4516     1
   4501   4512     1
   4501   4513     1
   4502   4507     1
   4502   4505     1
   4502   4506     1
   4502   4511     1
   4503   4507     1
   4503   4505     1
   4503   4506     1
   4503   4511     1
   4504   4510     1
   4505   4508     1
   4505   4509     1
   4506   4508     1
   4506   4509     1
   4508   4510     1
   4512   4517     1
   4512   4515     1
   4512   4516     1
   4513   4517     1
   4513   4515     1
   4513   4516     1
   4514   4520     1
   4515   4518     1
   4515   4519     1
   4516   4518     1
   4516   4519     1
   4518   4520     1
   4522   4529     1
   4522   4530     1
   4523   4528     1
   4523   4526     1
   4523   4527     1
   4524   4528     1
   4524   4526     1
   4524   4527     1
   4526   4552     1
   4526   4531     1
   4526   4529     1
   4526   4530     1
   4527   4552     1
   4527   4531     1
   4527   4529     1
   4527   4530     1
   4528   4533     1
   4528   4534     1
   4528   4543     1
   4528   4544     1
   4529   4532     1
   4529   4542     1
   4530   4532     1
   4530   4542     1
   4531   4536     1
   4531   4537     1
   4531   4546     1
   4531   4547     1
   4532   4543     1
   4532   4544     1
   4533   4542     1
   4533   4538     1
   4533   4536     1
   4533   4537     1
   4534   4542     1
   4534   4538     1
   4534   4536     1
   4534   4537     1
   4535   4541     1
   4536   4539     1
   4536   4540     1
   4537   4539     1
   4537   4540     1
   4539   4541     1
   4543   4548     1
   4543   4546     1
   4543   4547     1
   4544   4548     1
   4544   4546     1
   4544   4547     1
   4545   4551     1
   4546   4549     1
   4546   4550     1
   4547   4549     1
   4547   4550     1
   4549   4551     1
   4553   4560     1
   4553   4561     1
   4554   4559     1
   4554   4557     1
   4554   4558     1
   4555   4559     1
   4555   4557     1
   4555   4558     1
   4557   4562     1
   4557   4560     1
   4557   4561     1
   4557   4583     1
   4558   4562     1
   4558   4560     1
   4558   4561     1
   4558   4583     1
   4559   4564     1
   4559   4565     1
   4559   4574     1
   4559   4575     1
   4560   4563     1
   4560   4573     1
   4561   4563     1
   4561   4573     1
   4562   4567     1
   4562   4568     1
   4562   4577     1
   4562   4578     1
   4563   4574     1
   4563   4575     1
   4564   4569     1
   4564   4567     1
   4564   4568     1
   4564   4573     1
   4565   4569     1
   4565   4567     1
   4565   4568     1
   4565   4573     1
   4566   4572     1
   4567   4570     1
   4567   4571     1
   4568   4570     1
   4568   4571     1
   4570   4572     1
   4574   4579     1
   4574   4577     1
   4574   4578     1
   4575   4579     1
   4575   4577     1
   4575   4578     1
   4576   4582     1
   4577   4580     1
   4577   4581     1
   4578   4580     1
   4578   4581     1
   4580   4582     1
   4584   4591     1
   4584   4592     1
   4585   4590     1
   4585   4588     1
   4585   4589     1
   4586   4590     1
   4586   4588     1
   4586   4589     1
   4588   4614     1
   4588   4593     1
   4588   4591     1
   4588   4592     1
   4589   4614     1
   4589   4593     1
   4589   4591     1
   4589   4592     1
   4590   4595     1
   4590   4596     1
   4590   4605     1
   4590   4606     1
   4591   4594     1
   4591   4604     1
   4592   4594     1
   4592   4604     1
   4593   4598     1
   4593   4599     1
   4593   4608     1
   4593   4609     1
   4594   4605     1
   4594   4606     1
   4595   4604     1
   4595   4600     1
   4595   4598     1
   4595   4599     1
   4596   4604     1
   4596   4600     1
   4596   4598     1
   4596   4599     1
   4597   4603     1
   4598   4601     1
   4598   4602     1
   4599   4601     1
   4599   4602     1
   4601   4603     1
   4605   4610     1
   4605   4608     1
   4605   4609     1
   4606   4610     1
   4606   4608     1
   4606   4609     1
   4607   4613     1
   4608   4611     1
   4608   4612     1
   4609   4611     1
   4609   4612     1
   4611   4613     1
   4615   4622     1
   4615   4623     1
   4616   4621     1
   4616   4619     1
   4616   4620     1
   4617   4621     1
   4617   4619     1
   4617   4620     1
   4619   4624     1
   4619   4622     1
   4619   4623     1
   4619   4645     1
   4620   4624     1
   4620   4622     1
   4620   4623     1
   4620   4645     1
   4621   4626     1
   4621   4627     1
   4621   4636     1
   4621   4637     1
   4622   4625     1
   4622   4635     1
   4623   4625     1
   4623   4635     1
   4624   4629     1
   4624   4630     1
   4624   4639     1
   4624   4640     1
   4625   4636     1
   4625   4637     1
   4626   4631     1
   4626   4629     1
   4626   4630     1
   4626   4635     1
   4627   4631     1
   4627   4629     1
   4627   4630     1
   4627   4635     1
   4628   4634     1
   4629   4632     1
   4629   4633     1
   4630   4632     1
   4630   4633     1
   4632   4634     1
   4636   4641     1
   4636   4639     1
   4636   4640     1
   4637   4641     1
   4637   4639     1
   4637   4640     1
   4638   4644     1
   4639   4642     1
   4639   4643     1
   4640   4642     1
   4640   4643     1
   4642   4644     1
   4646   4653     1
   4646   4654     1
   4647   4652     1
   4647   4650     1
   4647   4651     1
   4648   4652     1
   4648   4650     1
   4648   4651     1
   4650   4676     1
   4650   4655     1
   4650   4653     1
   4650   4654     1
   4651   4676     1
   4651   4655     1
   4651   4653     1
   4651   4654     1
   4652   4657     1
   4652   4658     1
   4652   4667     1
   4652   4668     1
   4653   4656     1
   4653   4666     1
   4654   4656     1
   4654   4666     1
   4655   4660     1
   4655   4661     1
   4655   4670     1
   4655   4671     1
   4656   4667     1
   4656   4668     1
   4657   4666     1
   4657   4662     1
   4657   4660     1
   4657   4661     1
   4658   4666     1
   4658   4662     1
   4658   4660     1
   4658   4661     1
   4659   4665     1
   4660   4663     1
   4660   4664     1
   4661   4663     1
   4661   4664     1
   4663   4665     1
   4667   4672     1
   4667   4670     1
   4667   4671     1
   4668   4672     1
   4668   4670     1
   4668   4671     1
   4669   4675     1
   4670   4673     1
   4670   4674     1
   4671   4673     1
   4671   4674     1
   4673   4675     1
   4677   4684     1
   4677   4685     1
   4678   4683     1
   4678   4681     1
   4678   4682     1
   4679   4683     1
   4679   4681     1
   4679   4682     1
   4681   4686     1
   4681   4684     1
   4681   4685     1
   4681   4707     1
   4682   4686     1
   4682   4684     1
   4682   4685     1
   4682   4707     1
   4683   4688     1
   4683   4689     1
   4683   4698     1
   4683   4699     1
   4684   4687     1
   4684   4697     1
   4685   4687     1
   4685   4697     1
   4686   4691     1
   4686   4692     1
   4686   4701     1
   4686   4702     1
   4687   4698     1
   4687   4699     1
   4688   4693     1
   4688   4691     1
   4688   4692     1
   4688   4697     1
   4689   4693     1
   4689   4691     1
   4689   4692     1
   4689   4697     1
   4690   4696     1
   4691   4694     1
   4691   4695     1
   4692   4694     1
   4692   4695     1
   4694   4696     1
   4698   4703     1
   4698   4701     1
   4698   4702     1
   4699   4703     1
   4699   4701     1
   4699   4702     1
   4700   4706     1
   4701   4704     1
   4701   4705     1
   4702   4704     1
   4702   4705     1
   4704   4706     1
   4708   4715     1
   4708   4716     1
   4709   4714     1
   4709   4712     1
   4709   4713     1
   4710   4714     1
   4710   4712     1
   4710   4713     1
   4712   4738     1
   4712   4717     1
   4712   4715     1
   4712   4716     1
   4713   4738     1
   4713   4717     1
   4713   4715     1
   4713   4716     1
   4714   4719     1
   4714   4720     1
   4714   4729     1
   4714   4730     1
   4715   4718     1
   4715   4728     1
   4716   4718     1
   4716   4728     1
   4717   4722     1
   4717   4723     1
   4717   4732     1
   4717   4733     1
   4718   4729     1
   4718   4730     1
   4719   4728     1
   4719   4724     1
   4719   4722     1
   4719   4723     1
   4720   4728     1
   4720   4724     1
   4720   4722     1
   4720   4723     1
   4721   4727     1
   4722   4725     1
   4722   4726     1
   4723   4725     1
   4723   4726     1
   4725   4727     1
   4729   4734     1
   4729   4732     1
   4729   4733     1
   4730   4734     1
   4730   4732     1
   4730   4733     1
   4731   4737     1
   4732   4735     1
   4732   4736     1
   4733   4735     1
   4733   4736     1
   4735   4737     1
   4739   4746     1
   4739   4747     1
   4740   4745     1
   4740   4743     1
   4740   4744     1
   4741   4745     1
   4741   4743     1
   4741   4744     1
   4743   4748     1
   4743   4746     1
   4743   4747     1
   4743   4769     1
   4744   4748     1
   4744   4746     1
   4744   4747     1
   4744   4769     1
   4745   4750     1
   4745   4751     1
   4745   4760     1
   4745   4761     1
   4746   4749     1
   4746   4759     1
   4747   4749     1
   4747   4759     1
   4748   4753     1
   4748   4754     1
   4748   4763     1
   4748   4764     1
   4749   4760     1
   4749   4761     1
   4750   4755     1
   4750   4753     1
   4750   4754     1
   4750   4759     1
   4751   4755     1
   4751   4753     1
   4751   4754     1
   4751   4759     1
   4752   4758     1
   4753   4756     1
   4753   4757     1
   4754   4756     1
   4754   4757     1
   4756   4758     1
   4760   4765     1
   4760   4763     1
   4760   4764     1
   4761   4765     1
   4761   4763     1
   4761   4764     1
   4762   4768     1
   4763   4766     1
   4763   4767     1
   4764   4766     1
   4764   4767     1
   4766   4768     1
   4770   4777     1
   4770   4778     1
   4771   4776     1
   4771   4774     1
   4771   4775     1
   4772   4776     1
   4772   4774     1
   4772   4775     1
   4774   4800     1
   4774   4779     1
   4774   4777     1
   4774   4778     1
   4775   4800     1
   4775   4779     1
   4775   4777     1
   4775   4778     1
   4776   4781     1
   4776   4782     1
   4776   4791     1
   4776   4792     1
   4777   4780     1
   4777   4790     1
   4778   4780     1
   4778   4790     1
   4779   4784     1
   4779   4785     1
   4779   4794     1
   4779   4795     1
   4780   4791     1
   4780   4792     1
   4781   4790     1
   4781   4786     1
   4781   4784     1
   4781   4785     1
   4782   4790     1
   4782   4786     1
   4782   4784     1
   4782   4785     1
   4783   4789     1
   4784   4787     1
   4784   4788     1
   4785   4787     1
   4785   4788     1
   4787   4789     1
   4791   4796     1
   4791   4794     1
   4791   4795     1
   4792   4796     1
   4792   4794     1
   4792   4795     1
   4793   4799     1
   4794   4797     1
   4794   4798     1
   4795   4797     1
   4795   4798     1
   4797   4799     1
   4801   4808     1
   4801   4809     1
   4802   4807     1
   4802   4805     1
   4802   4806     1
   4803   4807     1
   4803   4805     1
   4803   4806     1
   4805   4810     1
   4805   4808     1
   4805   4809     1
   4805   4831     1
   4806   4810     1
   4806   4808     1
   4806   4809     1
   4806   4831     1
   4807   4812     1
   4807   4813     1
   4807   4822     1
   4807   4823     1
   4808   4811     1
   4808   4821     1
   4809   4811     1
   4809   4821     1
   4810   4815     1
   4810   4816     1
   4810   4825     1
   4810   4826     1
   4811   4822     1
   4811   4823     1
   4812   4817     1
   4812   4815     1
   4812   4816     1
   4812   4821     1
   4813   4817     1
   4813   4815     1
   4813   4816     1
   4813   4821     1
   4814   4820     1
   4815   4818     1
   4815   4819     1
   4816   4818     1
   4816   4819     1
   4818   4820     1
   4822   4827     1
   4822   4825     1
   4822   4826     1
   4823   4827     1
   4823   4825     1
   4823   4826     1
   4824   4830     1
   4825   4828     1
   4825   4829     1
   4826   4828     1
   4826   4829     1
   4828   4830     1
   4832   4839     1
   4832   4840     1
   4833   4838     1
   4833   4836     1
   4833   4837     1
   4834   4838     1
   4834   4836     1
   4834   4837     1
   4836   4862     1
   4836   4841     1
   4836   4839     1
   4836   4840     1
   4837   4862     1
   4837   4841     1
   4837   4839     1
   4837   4840     1
   4838   4843     1
   4838   4844     1
   4838   4853     1
   4838   4854     1
   4839   4842     1
   4839   4852     1
   4840   4842     1
   4840   4852     1
   4841   4846     1
   4841   4847     1
   4841   4856     1
   4841   4857     1
   4842   4853     1
   4842   4854     1
   4843   4852     1
   4843   4848     1
   4843   4846     1
   4843   4847     1
   4844   4852     1
   4844   4848     1
   4844   4846     1
   4844   4847     1
   4845   4851     1
   4846   4849     1
   4846   4850     1
   4847   4849     1
   4847   4850     1
   4849   4851     1
   4853   4858     1
   4853   4856     1
   4853   4857     1
   4854   4858     1
   4854   4856     1
   4854   4857     1
   4855   4861     1
   4856   4859     1
   4856   4860     1
   4857   4859     1
   4857   4860     1
   4859   4861     1
   4863   4870     1
   4863   4871     1
   4864   4869     1
   4864   4867     1
   4864   4868     1
   4865   4869     1
   4865   4867     1
   4865   4868     1
   4867   4872     1
   4867   4870     1
   4867   4871     1
   4867   4893     1
   4868   4872     1
   4868   4870     1
   4868   4871     1
   4868   4893     1
   4869   4874     1
   4869   4875     1
   4869   4884     1
   4869   4885     1
   4870   4873     1
   4870   4883     1
   4871   4873     1
   4871   4883     1
   4872   4877     1
   4872   4878     1
   4872   4887     1
   4872   4888     1
   4873   4884     1
   4873   4885     1
   4874   4879     1
   4874   4877     1
   4874   4878     1
   4874   4883     1
   4875   4879     1
   4875   4877     1
   4875   4878     1
   4875   4883     1
   4876   4882     1
   4877   4880     1
   4877   4881     1
   4878   4880     1
   4878   4881     1
   4880   4882     1
   4884   4889     1
   4884   4887     1
   4884   4888     1
   4885   4889     1
   4885   4887     1
   4885   4888     1
   4886   4892     1
   4887   4890     1
   4887   4891     1
   4888   4890     1
   4888   4891     1
   4890   4892     1
   4894   4901     1
   4894   4902     1
   4895   4900     1
   4895   4898     1
   4895   4899     1
   4896   4900     1
   4896   4898     1
   4896   4899     1
   4898   4924     1
   4898   4903     1
   4898   4901     1
   4898   4902     1
   4899   4924     1
   4899   4903     1
   4899   4901     1
   4899   4902     1
   4900   4905     1
   4900   4906     1
   4900   4915     1
   4900   4916     1
   4901   4904     1
   4901   4914     1
   4902   4904     1
   4902   4914     1
   4903   4908     1
   4903   4909     1
   4903   4918     1
   4903   4919     1
   4904   4915     1
   4904   4916     1
   4905   4914     1
   4905   4910     1
   4905   4908     1
   4905   4909     1
   4906   4914     1
   4906   4910     1
   4906   4908     1
   4906   4909     1
   4907   4913     1
   4908   4911     1
   4908   4912     1
   4909   4911     1
   4909   4912     1
   4911   4913     1
   4915   4920     1
   4915   4918     1
   4915   4919     1
   4916   4920     1
   4916   4918     1
   4916   4919     1
   4917   4923     1
   4918   4921     1
   4918   4922     1
   4919   4921     1
   4919   4922     1
   4921   4923     1
   4925   4932     1
   4925   4933     1
   4926   4931     1
   4926   4929     1
   4926   4930     1
   4927   4931     1
   4927   4929     1
   4927   4930     1
   4929   4934     1
   4929   4932     1
   4929   4933     1
   4929   4955     1
   4930   4934     1
   4930   4932     1
   4930   4933     1
   4930   4955     1
   4931   4936     1
   4931   4937     1
   4931   4946     1
   4931   4947     1
   4932   4935     1
   4932   4945     1
   4933   4935     1
   4933   4945     1
   4934   4939     1
   4934   4940     1
   4934   4949     1
   4934   4950     1
   4935   4946     1
   4935   4947     1
   4936   4941     1
   4936   4939     1
   4936   4940     1
   4936   4945     1
   4937   4941     1
   4937   4939     1
   4937   4940     1
   4937   4945     1
   4938   4944     1
   4939   4942     1
   4939   4943     1
   4940   4942     1
   4940   4943     1
   4942   4944     1
   4946   4951     1
   4946   4949     1
   4946   4950     1
   4947   4951     1
   4947   4949     1
   4947   4950     1
   4948   4954     1
   4949   4952     1
   4949   4953     1
   4950   4952     1
   4950   4953     1
   4952   4954     1
   4956   4963     1
   4956   4964     1
   4957   4962     1
   4957   4960     1
   4957   4961     1
   4958   4962     1
   4958   4960     1
   4958   4961     1
   4960   4986     1
   4960   4965     1
   4960   4963     1
   4960   4964     1
   4961   4986     1
   4961   4965     1
   4961   4963     1
   4961   4964     1
   4962   4967     1
   4962   4968     1
   4962   4977     1
   4962   4978     1
   4963   4966     1
   4963   4976     1
   4964   4966     1
   4964   4976     1
   4965   4970     1
   4965   4971     1
   4965   4980     1
   4965   4981     1
   4966   4977     1
   4966   4978     1
   4967   4976     1
   4967   4972     1
   4967   4970     1
   4967   4971     1
   4968   4976     1
   4968   4972     1
   4968   4970     1
   4968   4971     1
   4969   4975     1
   4970   4973     1
   4970   4974     1
   4971   4973     1
   4971   4974     1
   4973   4975     1
   4977   4982     1
   4977   4980     1
   4977   4981     1
   4978   4982     1
   4978   4980     1
   4978   4981     1
   4979   4985     1
   4980   4983     1
   4980   4984     1
   4981   4983     1
   4981   4984     1
   4983   4985     1
   4987   4994     1
   4987   4995     1
   4988   4993     1
   4988   4991     1
   4988   4992     1
   4989   4993     1
   4989   4991     1
   4989   4992     1
   4991   4996     1
   4991   4994     1
   4991   4995     1
   4991   5017     1
   4992   4996     1
   4992   4994     1
   4992   4995     1
   4992   5017     1
   4993   4998     1
   4993   4999     1
   4993   5008     1
   4993   5009     1
   4994   4997     1
   4994   5007     1
   4995   4997     1
   4995   5007     1
   4996   5001     1
   4996   5002     1
   4996   5011     1
   4996   5012     1
   4997   5008     1
   4997   5009     1
   4998   5003     1
   4998   5001     1
   4998   5002     1
   4998   5007     1
   4999   5003     1
   4999   5001     1
   4999   5002     1
   4999   5007     1
   5000   5006     1
   5001   5004     1
   5001   5005     1
   5002   5004     1
   5002   5005     1
   5004   5006     1
   5008   5013     1
   5008   5011     1
   5008   5012     1
   5009   5013     1
   5009   5011     1
   5009   5012     1
   5010   5016     1
   5011   5014     1
   5011   5015     1
   5012   5014     1
   5012   5015     1
   5014   5016     1
   5018   5025     1
   5018   5026     1
   5019   5024     1
   5019   5022     1
   5019   5023     1
   5020   5024     1
   5020   5022     1
   5020   5023     1
   5022   5048     1
   5022   5027     1
   5022   5025     1
   5022   5026     1
   5023   5048     1
   5023   5027     1
   5023   5025     1
   5023   5026     1
   5024   5029     1
   5024   5030     1
   5024   5039     1
   5024   5040     1
   5025   5028     1
   5025   5038     1
   5026   5028     1
   5026   5038     1
   5027   5032     1
   5027   5033     1
   5027   5042     1
   5027   5043     1
   5028   5039     1
   5028   5040     1
   5029   5038     1
   5029   5034     1
   5029   5032     1
   5029   5033     1
   5030   5038     1
   5030   5034     1
   5030   5032     1
   5030   5033     1
   5031   5037     1
   5032   5035     1
   5032   5036     1
   5033   5035     1
   5033   5036     1
   5035   5037     1
   5039   5044     1
   5039   5042     1
   5039   5043     1
   5040   5044     1
   5040   5042     1
   5040   5043     1
   5041   5047     1
   5042   5045     1
   5042   5046     1
   5043   5045     1
   5043   5046     1
   5045   5047     1
   5049   5056     1
   5049   5057     1
   5050   5055     1
   5050   5053     1
   5050   5054     1
   5051   5055     1
   5051   5053     1
   5051   5054     1
   5053   5058     1
   5053   5056     1
   5053   5057     1
   5053   5079     1
   5054   5058     1
   5054   5056     1
   5054   5057     1
   5054   5079     1
   5055   5060     1
   5055   5061     1
   5055   5070     1
   5055   5071     1
   5056   5059     1
   5056   5069     1
   5057   5059     1
   5057   5069     1
   5058   5063     1
   5058   5064     1
   5058   5073     1
   5058   5074     1
   5059   5070     1
   5059   5071     1
   5060   5065     1
   5060   5063     1
   5060   5064     1
   5060   5069     1
   5061   5065     1
   5061   5063     1
   5061   5064     1
   5061   5069     1
   5062   5068     1
   5063   5066     1
   5063   5067     1
   5064   5066     1
   5064   5067     1
   5066   5068     1
   5070   5075     1
   5070   5073     1
   5070   5074     1
   5071   5075     1
   5071   5073     1
   5071   5074     1
   5072   5078     1
   5073   5076     1
   5073   5077     1
   5074   5076     1
   5074   5077     1
   5076   5078     1
   5080   5087     1
   5080   5088     1
   5081   5086     1
   5081   5084     1
   5081   5085     1
   5082   5086     1
   5082   5084     1
   5082   5085     1
   5084   5110     1
   5084   5089     1
   5084   5087     1
   5084   5088     1
   5085   5110     1
   5085   5089     1
   5085   5087     1
   5085   5088     1
   5086   5091     1
   5086   5092     1
   5086   5101     1
   5086   5102     1
   5087   5090     1
   5087   5100     1
   5088   5090     1
   5088   5100     1
   5089   5094     1
   5089   5095     1
   5089   5104     1
   5089   5105     1
   5090   5101     1
   5090   5102     1
   5091   5100     1
   5091   5096     1
   5091   5094     1
   5091   5095     1
   5092   5100     1
   5092   5096     1
   5092   5094     1
   5092   5095     1
   5093   5099     1
   5094   5097     1
   5094   5098     1
   5095   5097     1
   5095   5098     1
   5097   5099     1
   5101   5106     1
   5101   5104     1
   5101   5105     1
   5102   5106     1
   5102   5104     1
   5102   5105     1
   5103   5109     1
   5104   5107     1
   5104   5108     1
   5105   5107     1
   5105   5108     1
   5107   5109     1
   5111   5118     1
   5111   5119     1
   5112   5117     1
   5112   5115     1
   5112   5116     1
   5113   5117     1
   5113   5115     1
   5113   5116     1
   5115   5120     1
   5115   5118     1
   5115   5119     1
   5115   5141     1
   5116   5120     1
   5116   5118     1
   5116   5119     1
   5116   5141     1
   5117   5122     1
   5117   5123     1
   5117   5132     1
   5117   5133     1
   5118   5121     1
   5118   5131     1
   5119   5121     1
   5119   5131     1
   5120   5125     1
   5120   5126     1
   5120   5135     1
   5120   5136     1
   5121   5132     1
   5121   5133     1
   5122   5127     1
   5122   5125     1
   5122   5126     1
   5122   5131     1
   5123   5127     1
   5123   5125     1
   5123   5126     1
   5123   5131     1
   5124   5130     1
   5125   5128     1
   5125   5129     1
   5126   5128     1
   5126   5129     1
   5128   5130     1
   5132   5137     1
   5132   5135     1
   5132   5136     1
   5133   5137     1
   5133   5135     1
   5133   5136     1
   5134   5140     1
   5135   5138     1
   5135   5139     1
   5136   5138     1
   5136   5139     1
   5138   5140     1
   5142   5149     1
   5142   5150     1
   5143   5148     1
   5143   5146     1
   5143   5147     1
   5144   5148     1
   5144   5146     1
   5144   5147     1
   5146   5172     1
   5146   5151     1
   5146   5149     1
   5146   5150     1
   5147   5172     1
   5147   5151     1
   5147   5149     1
   5147   5150     1
   5148   5153     1
   5148   5154     1
   5148   5163     1
   5148   5164     1
   5149   5152     1
   5149   5162     1
   5150   5152     1
   5150   5162     1
   5151   5156     1
   5151   5157     1
   5151   5166     1
   5151   5167     1
   5152   5163     1
   5152   5164     1
   5153   5162     1
   5153   5158     1
   5153   5156     1
   5153   5157     1
   5154   5162     1
   5154   5158     1
   5154   5156     1
   5154   5157     1
   5155   5161     1
   5156   5159     1
   5156   5160     1
   5157   5159     1
   5157   5160     1
   5159   5161     1
   5163   5168     1
   5163   5166     1
   5163   5167     1
   5164   5168     1
   5164   5166     1
   5164   5167     1
   5165   5171     1
   5166   5169     1
   5166   5170     1
   5167   5169     1
   5167   5170     1
   5169   5171     1
   5173   5180     1
   5173   5181     1
   5174   5179     1
   5174   5177     1
   5174   5178     1
   5175   5179     1
   5175   5177     1
   5175   5178     1
   5177   5182     1
   5177   5180     1
   5177   5181     1
   5177   5203     1
   5178   5182     1
   5178   5180     1
   5178   5181     1
   5178   5203     1
   5179   5184     1
   5179   5185     1
   5179   5194     1
   5179   5195     1
   5180   5183     1
   5180   5193     1
   5181   5183     1
   5181   5193     1
   5182   5187     1
   5182   5188     1
   5182   5197     1
   5182   5198     1
   5183   5194     1
   5183   5195     1
   5184   5189     1
   5184   5187     1
   5184   5188     1
   5184   5193     1
   5185   5189     1
   5185   5187     1
   5185   5188     1
   5185   5193     1
   5186   5192     1
   5187   5190     1
   5187   5191     1
   5188   5190     1
   5188   5191     1
   5190   5192     1
   5194   5199     1
   5194   5197     1
   5194   5198     1
   5195   5199     1
   5195   5197     1
   5195   5198     1
   5196   5202     1
   5197   5200     1
   5197   5201     1
   5198   5200     1
   5198   5201     1
   5200   5202     1
   5204   5211     1
   5204   5212     1
   5205   5210     1
   5205   5208     1
   5205   5209     1
   5206   5210     1
   5206   5208     1
   5206   5209     1
   5208   5234     1
   5208   5213     1
   5208   5211     1
   5208   5212     1
   5209   5234     1
   5209   5213     1
   5209   5211     1
   5209   5212     1
   5210   5215     1
   5210   5216     1
   5210   5225     1
   5210   5226     1
   5211   5214     1
   5211   5224     1
   5212   5214     1
   5212   5224     1
   5213   5218     1
   5213   5219     1
   5213   5228     1
   5213   5229     1
   5214   5225     1
   5214   5226     1
   5215   5224     1
   5215   5220     1
   5215   5218     1
   5215   5219     1
   5216   5224     1
   5216   5220     1
   5216   5218     1
   5216   5219     1
   5217   5223     1
   5218   5221     1
   5218   5222     1
   5219   5221     1
   5219   5222     1
   5221   5223     1
   5225   5230     1
   5225   5228     1
   5225   5229     1
   5226   5230     1
   5226   5228     1
   5226   5229     1
   5227   5233     1
   5228   5231     1
   5228   5232     1
   5229   5231     1
   5229   5232     1
   5231   5233     1
   5235   5242     1
   5235   5243     1
   5236   5241     1
   5236   5239     1
   5236   5240     1
   5237   5241     1
   5237   5239     1
   5237   5240     1
   5239   5244     1
   5239   5242     1
   5239   5243     1
   5239   5265     1
   5240   5244     1
   5240   5242     1
   5240   5243     1
   5240   5265     1
   5241   5246     1
   5241   5247     1
   5241   5256     1
   5241   5257     1
   5242   5245     1
   5242   5255     1
   5243   5245     1
   5243   5255     1
   5244   5249     1
   5244   5250     1
   5244   5259     1
   5244   5260     1
   5245   5256     1
   5245   5257     1
   5246   5251     1
   5246   5249     1
   5246   5250     1
   5246   5255     1
   5247   5251     1
   5247   5249     1
   5247   5250     1
   5247   5255     1
   5248   5254     1
   5249   5252     1
   5249   5253     1
   5250   5252     1
   5250   5253     1
   5252   5254     1
   5256   5261     1
   5256   5259     1
   5256   5260     1
   5257   5261     1
   5257   5259     1
   5257   5260     1
   5258   5264     1
   5259   5262     1
   5259   5263     1
   5260   5262     1
   5260   5263     1
   5262   5264     1
   5266   5273     1
   5266   5274     1
   5267   5272     1
   5267   5270     1
   5267   5271     1
   5268   5272     1
   5268   5270     1
   5268   5271     1
   5270   5296     1
   5270   5275     1
   5270   5273     1
   5270   5274     1
   5271   5296     1
   5271   5275     1
   5271   5273     1
   5271   5274     1
   5272   5277     1
   5272   5278     1
   5272   5287     1
   5272   5288     1
   5273   5276     1
   5273   5286     1
   5274   5276     1
   5274   5286     1
   5275   5280     1
   5275   5281     1
   5275   5290     1
   5275   5291     1
   5276   5287     1
   5276   5288     1
   5277   5286     1
   5277   5282     1
   5277   5280     1
   5277   5281     1
   5278   5286     1
   5278   5282     1
   5278   5280     1
   5278   5281     1
   5279   5285     1
   5280   5283     1
   5280   5284     1
   5281   5283     1
   5281   5284     1
   5283   5285     1
   5287   5292     1
   5287   5290     1
   5287   5291     1
   5288   5292     1
   5288   5290     1
   5288   5291     1
   5289   5295     1
   5290   5293     1
   5290   5294     1
   5291   5293     1
   5291   5294     1
   5293   5295     1
   5297   5304     1
   5297   5305     1
   5298   5303     1
   5298   5301     1
   5298   5302     1
   5299   5303     1
   5299   5301     1
   5299   5302     1
   5301   5306     1
   5301   5304     1
   5301   5305     1
   5301   5327     1
   5302   5306     1
   5302   5304     1
   5302   5305     1
   5302   5327     1
   5303   5308     1
   5303   5309     1
   5303   5318     1
   5303   5319     1
   5304   5307     1
   5304   5317     1
   5305   5307     1
   5305   5317     1
   5306   5311     1
   5306   5312     1
   5306   5321     1
   5306   5322     1
   5307   5318     1
   5307   5319     1
   5308   5313     1
   5308   5311     1
   5308   5312     1
   5308   5317     1
   5309   5313     1
   5309   5311     1
   5309   5312     1
   5309   5317     1
   5310   5316     1
   5311   5314     1
   5311   5315     1
   5312   5314     1
   5312   5315     1
   5314   5316     1
   5318   5323     1
   5318   5321     1
   5318   5322     1
   5319   5323     1
   5319   5321     1
   5319   5322     1
   5320   5326     1
   5321   5324     1
   5321   5325     1
   5322   5324     1
   5322   5325     1
   5324   5326     1
   5328   5335     1
   5328   5336     1
   5329   5334     1
   5329   5332     1
   5329   5333     1
   5330   5334     1
   5330   5332     1
   5330   5333     1
   5332   5358     1
   5332   5337     1
   5332   5335     1
   5332   5336     1
   5333   5358     1
   5333   5337     1
   5333   5335     1
   5333   5336     1
   5334   5339     1
   5334   5340     1
   5334   5349     1
   5334   5350     1
   5335   5338     1
   5335   5348     1
   5336   5338     1
   5336   5348     1
   5337   5342     1
   5337   5343     1
   5337   5352     1
   5337   5353     1
   5338   5349     1
   5338   5350     1
   5339   5348     1
   5339   5344     1
   5339   5342     1
   5339   5343     1
   5340   5348     1
   5340   5344     1
   5340   5342     1
   5340   5343     1
   5341   5347     1
   5342   5345     1
   5342   5346     1
   5343   5345     1
   5343   5346     1
   5345   5347     1
   5349   5354     1
   5349   5352     1
   5349   5353     1
   5350   5354     1
   5350   5352     1
   5350   5353     1
   5351   5357     1
   5352   5355     1
   5352   5356     1
   5353   5355     1
   5353   5356     1
   5355   5357     1
   5359   5366     1
   5359   5367     1
   5360   5365     1
   5360   5363     1
   5360   5364     1
   5361   5365     1
   5361   5363     1
   5361   5364     1
   5363   5368     1
   5363   5366     1
   5363   5367     1
   5363   5389     1
   5364   5368     1
   5364   5366     1
   5364   5367     1
   5364   5389     1
   5365   5370     1
   5365   5371     1
   5365   5380     1
   5365   5381     1
   5366   5369     1
   5366   5379     1
   5367   5369     1
   5367   5379     1
   5368   5373     1
   5368   5374     1
   5368   5383     1
   5368   5384     1
   5369   5380     1
   5369   5381     1
   5370   5375     1
   5370   5373     1
   5370   5374     1
   5370   5379     1
   5371   5375     1
   5371   5373     1
   5371   5374     1
   5371   5379     1
   5372   5378     1
   5373   5376     1
   5373   5377     1
   5374   5376     1
   5374   5377     1
   5376   5378     1
   5380   5385     1
   5380   5383     1
   5380   5384     1
   5381   5385     1
   5381   5383     1
   5381   5384     1
   5382   5388     1
   5383   5386     1
   5383   5387     1
   5384   5386     1
   5384   5387     1
   5386   5388     1
   5390   5397     1
   5390   5398     1
   5391   5396     1
   5391   5394     1
   5391   5395     1
   5392   5396     1
   5392   5394     1
   5392   5395     1
   5394   5420     1
   5394   5399     1
   5394   5397     1
   5394   5398     1
   5395   5420     1
   5395   5399     1
   5395   5397     1
   5395   5398     1
   5396   5401     1
   5396   5402     1
   5396   5411     1
   5396   5412     1
   5397   5400     1
   5397   5410     1
   5398   5400     1
   5398   5410     1
   5399   5404     1
   5399   5405     1
   5399   5414     1
   5399   5415     1
   5400   5411     1
   5400   5412     1
   5401   5410     1
   5401   5406     1
   5401   5404     1
   5401   5405     1
   5402   5410     1
   5402   5406     1
   5402   5404     1
   5402   5405     1
   5403   5409     1
   5404   5407     1
   5404   5408     1
   5405   5407     1
   5405   5408     1
   5407   5409     1
   5411   5416     1
   5411   5414     1
   5411   5415     1
   5412   5416     1
   5412   5414     1
   5412   5415     1
   5413   5419     1
   5414   5417     1
   5414   5418     1
   5415   5417     1
   5415   5418     1
   5417   5419     1
   5421   5428     1
   5421   5429     1
   5422   5427     1
   5422   5425     1
   5422   5426     1
   5423   5427     1
   5423   5425     1
   5423   5426     1
   5425   5430     1
   5425   5428     1
   5425   5429     1
   5425   5451     1
   5426   5430     1
   5426   5428     1
   5426   5429     1
   5426   5451     1
   5427   5432     1
   5427   5433     1
   5427   5442     1
   5427   5443     1
   5428   5431     1
   5428   5441     1
   5429   5431     1
   5429   5441     1
   5430   5435     1
   5430   5436     1
   5430   5445     1
   5430   5446     1
   5431   5442     1
   5431   5443     1
   5432   5437     1
   5432   5435     1
   5432   5436     1
   5432   5441     1
   5433   5437     1
   5433   5435     1
   5433   5436     1
   5433   5441     1
   5434   5440     1
   5435   5438     1
   5435   5439     1
   5436   5438     1
   5436   5439     1
   5438   5440     1
   5442   5447     1
   5442   5445     1
   5442   5446     1
   5443   5447     1
   5443   5445     1
   5443   5446     1
   5444   5450     1
   5445   5448     1
   5445   5449     1
   5446   5448     1
   5446   5449     1
   5448   5450     1
   5452   5459     1
   5452   5460     1
   5453   5458     1
   5453   5456     1
   5453   5457     1
   5454   5458     1
   5454   5456     1
   5454   5457     1
   5456   5482     1
   5456   5461     1
   5456   5459     1
   5456   5460     1
   5457   5482     1
   5457   5461     1
   5457   5459     1
   5457   5460     1
   5458   5463     1
   5458   5464     1
   5458   5473     1
   5458   5474     1
   5459   5462     1
   5459   5472     1
   5460   5462     1
   5460   5472     1
   5461   5466     1
   5461   5467     1
   5461   5476     1
   5461   5477     1
   5462   5473     1
   5462   5474     1
   5463   5472     1
   5463   5468     1
   5463   5466     1
   5463   5467     1
   5464   5472     1
   5464   5468     1
   5464   5466     1
   5464   5467     1
   5465   5471     1
   5466   5469     1
   5466   5470     1
   5467   5469     1
   5467   5470     1
   5469   5471     1
   5473   5478     1
   5473   5476     1
   5473   5477     1
   5474   5478     1
   5474   5476     1
   5474   5477     1
   5475   5481     1
   5476   5479     1
   5476   5480     1
   5477   5479     1
   5477   5480     1
   5479   5481     1
   5483   5490     1
   5483   5491     1
   5484   5489     1
   5484   5487     1
   5484   5488     1
   5485   5489     1
   5485   5487     1
   5485   5488     1
   5487   5492     1
   5487   5490     1
   5487   5491     1
   5487   5513     1
   5488   5492     1
   5488   5490     1
   5488   5491     1
   5488   5513     1
   5489   5494     1
   5489   5495     1
   5489   5504     1
   5489   5505     1
   5490   5493     1
   5490   5503     1
   5491   5493     1
   5491   5503     1
   5492   5497     1
   5492   5498     1
   5492   5507     1
   5492   5508     1
   5493   5504     1
   5493   5505     1
   5494   5499     1
   5494   5497     1
   5494   5498     1
   5494   5503     1
   5495   5499     1
   5495   5497     1
   5495   5498     1
   5495   5503     1
   5496   5502     1
   5497   5500     1
   5497   5501     1
   5498   5500     1
   5498   5501     1
   5500   5502     1
   5504   5509     1
   5504   5507     1
   5504   5508     1
   5505   5509     1
   5505   5507     1
   5505   5508     1
   5506   5512     1
   5507   5510     1
   5507   5511     1
   5508   5510     1
   5508   5511     1
   5510   5512     1
   5514   5521     1
   5514   5522     1
   5515   5520     1
   5515   5518     1
   5515   5519     1
   5516   5520     1
   5516   5518     1
   5516   5519     1
   5518   5544     1
   5518   5523     1
   5518   5521     1
   5518   5522     1
   5519   5544     1
   5519   5523     1
   5519   5521     1
   5519   5522     1
   5520   5525     1
   5520   5526     1
   5520   5535     1
   5520   5536     1
   5521   5524     1
   5521   5534     1
   5522   5524     1
   5522   5534     1
   5523   5528     1
   5523   5529     1
   5523   5538     1
   5523   5539     1
   5524   5535     1
   5524   5536     1
   5525   5534     1
   5525   5530     1
   5525   5528     1
   5525   5529     1
   5526   5534     1
   5526   5530     1
   5526   5528     1
   5526   5529     1
   5527   5533     1
   5528   5531     1
   5528   5532     1
   5529   5531     1
   5529   5532     1
   5531   5533     1
   5535   5540     1
   5535   5538     1
   5535   5539     1
   5536   5540     1
   5536   5538     1
   5536   5539     1
   5537   5543     1
   5538   5541     1
   5538   5542     1
   5539   5541     1
   5539   5542     1
   5541   5543     1
   5545   5552     1
   5545   5553     1
   5546   5551     1
   5546   5549     1
   5546   5550     1
   5547   5551     1
   5547   5549     1
   5547   5550     1
   5549   5554     1
   5549   5552     1
   5549   5553     1
   5549   5575     1
   5550   5554     1
   5550   5552     1
   5550   5553     1
   5550   5575     1
   5551   5556     1
   5551   5557     1
   5551   5566     1
   5551   5567     1
   5552   5555     1
   5552   5565     1
   5553   5555     1
   5553   5565     1
   5554   5559     1
   5554   5560     1
   5554   5569     1
   5554   5570     1
   5555   5566     1
   5555   5567     1
   5556   5561     1
   5556   5559     1
   5556   5560     1
   5556   5565     1
   5557   5561     1
   5557   5559     1
   5557   5560     1
   5557   5565     1
   5558   5564     1
   5559   5562     1
   5559   5563     1
   5560   5562     1
   5560   5563     1
   5562   5564     1
   5566   5571     1
   5566   5569     1
   5566   5570     1
   5567   5571     1
   5567   5569     1
   5567   5570     1
   5568   5574     1
   5569   5572     1
   5569   5573     1
   5570   5572     1
   5570   5573     1
   5572   5574     1
   5576   5583     1
   5576   5584     1
   5577   5582     1
   5577   5580     1
   5577   5581     1
   5578   5582     1
   5578   5580     1
   5578   5581     1
   5580   5606     1
   5580   5585     1
   5580   5583     1
   5580   5584     1
   5581   5606     1
   5581   5585     1
   5581   5583     1
   5581   5584     1
   5582   5587     1
   5582   5588     1
   5582   5597     1
   5582   5598     1
   5583   5586     1
   5583   5596     1
   5584   5586     1
   5584   5596     1
   5585   5590     1
   5585   5591     1
   5585   5600     1
   5585   5601     1
   5586   5597     1
   5586   5598     1
   5587   5596     1
   5587   5592     1
   5587   5590     1
   5587   5591     1
   5588   5596     1
   5588   5592     1
   5588   5590     1
   5588   5591     1
   5589   5595     1
   5590   5593     1
   5590   5594     1
   5591   5593     1
   5591   5594     1
   5593   5595     1
   5597   5602     1
   5597   5600     1
   5597   5601     1
   5598   5602     1
   5598   5600     1
   5598   5601     1
   5599   5605     1
   5600   5603     1
   5600   5604     1
   5601   5603     1
   5601   5604     1
   5603   5605     1
   5607   5614     1
   5607   5615     1
   5608   5613     1
   5608   5611     1
   5608   5612     1
   5609   5613     1
   5609   5611     1
   5609   5612     1
   5611   5616     1
   5611   5614     1
   5611   5615     1
   5611   5637     1
   5612   5616     1
   5612   5614     1
   5612   5615     1
   5612   5637     1
   5613   5618     1
   5613   5619     1
   5613   5628     1
   5613   5629     1
   5614   5617     1
   5614   5627     1
   5615   5617     1
   5615   5627     1
   5616   5621     1
   5616   5622     1
   5616   5631     1
   5616   5632     1
   5617   5628     1
   5617   5629     1
   5618   5623     1
   5618   5621     1
   5618   5622     1
   5618   5627     1
   5619   5623     1
   5619   5621     1
   5619   5622     1
   5619   5627     1
   5620   5626     1
   5621   5624     1
   5621   5625     1
   5622   5624     1
   5622   5625     1
   5624   5626     1
   5628   5633     1
   5628   5631     1
   5628   5632     1
   5629   5633     1
   5629   5631     1
   5629   5632     1
   5630   5636     1
   5631   5634     1
   5631   5635     1
   5632   5634     1
   5632   5635     1
   5634   5636     1
   5638   5645     1
   5638   5646     1
   5639   5644     1
   5639   5642     1
   5639   5643     1
   5640   5644     1
   5640   5642     1
   5640   5643     1
   5642   5668     1
   5642   5647     1
   5642   5645     1
   5642   5646     1
   5643   5668     1
   5643   5647     1
   5643   5645     1
   5643   5646     1
   5644   5649     1
   5644   5650     1
   5644   5659     1
   5644   5660     1
   5645   5648     1
   5645   5658     1
   5646   5648     1
   5646   5658     1
   5647   5652     1
   5647   5653     1
   5647   5662     1
   5647   5663     1
   5648   5659     1
   5648   5660     1
   5649   5658     1
   5649   5654     1
   5649   5652     1
   5649   5653     1
   5650   5658     1
   5650   5654     1
   5650   5652     1
   5650   5653     1
   5651   5657     1
   5652   5655     1
   5652   5656     1
   5653   5655     1
   5653   5656     1
   5655   5657     1
   5659   5664     1
   5659   5662     1
   5659   5663     1
   5660   5664     1
   5660   5662     1
   5660   5663     1
   5661   5667     1
   5662   5665     1
   5662   5666     1
   5663   5665     1
   5663   5666     1
   5665   5667     1
   5669   5676     1
   5669   5677     1
   5670   5675     1
   5670   5673     1
   5670   5674     1
   5671   5675     1
   5671   5673     1
   5671   5674     1
   5673   5678     1
   5673   5676     1
   5673   5677     1
   5673   5699     1
   5674   5678     1
   5674   5676     1
   5674   5677     1
   5674   5699     1
   5675   5680     1
   5675   5681     1
   5675   5690     1
   5675   5691     1
   5676   5679     1
   5676   5689     1
   5677   5679     1
   5677   5689     1
   5678   5683     1
   5678   5684     1
   5678   5693     1
   5678   5694     1
   5679   5690     1
   5679   5691     1
   5680   5685     1
   5680   5683     1
   5680   5684     1
   5680   5689     1
   5681   5685     1
   5681   5683     1
   5681   5684     1
   5681   5689     1
   5682   5688     1
   5683   5686     1
   5683   5687     1
   5684   5686     1
   5684   5687     1
   5686   5688     1
   5690   5695     1
   5690   5693     1
   5690   5694     1
   5691   5695     1
   5691   5693     1
   5691   5694     1
   5692   5698     1
   5693   5696     1
   5693   5697     1
   5694   5696     1
   5694   5697     1
   5696   5698     1
   5700   5707     1
   5700   5708     1
   5701   5706     1
   5701   5704     1
   5701   5705     1
   5702   5706     1
   5702   5704     1
   5702   5705     1
   5704   5730     1
   5704   5709     1
   5704   5707     1
   5704   5708     1
   5705   5730     1
   5705   5709     1
   5705   5707     1
   5705   5708     1
   5706   5711     1
   5706   5712     1
   5706   5721     1
   5706   5722     1
   5707   5710     1
   5707   5720     1
   5708   5710     1
   5708   5720     1
   5709   5714     1
   5709   5715     1
   5709   5724     1
   5709   5725     1
   5710   5721     1
   5710   5722     1
   5711   5720     1
   5711   5716     1
   5711   5714     1
   5711   5715     1
   5712   5720     1
   5712   5716     1
   5712   5714     1
   5712   5715     1
   5713   5719     1
   5714   5717     1
   5714   5718     1
   5715   5717     1
   5715   5718     1
   5717   5719     1
   5721   5726     1
   5721   5724     1
   5721   5725     1
   5722   5726     1
   5722   5724     1
   5722   5725     1
   5723   5729     1
   5724   5727     1
   5724   5728     1
   5725   5727     1
   5725   5728     1
   5727   5729     1
   5731   5738     1
   5731   5739     1
   5732   5737     1
   5732   5735     1
   5732   5736     1
   5733   5737     1
   5733   5735     1
   5733   5736     1
   5735   5740     1
   5735   5738     1
   5735   5739     1
   5735   5761     1
   5736   5740     1
   5736   5738     1
   5736   5739     1
   5736   5761     1
   5737   5742     1
   5737   5743     1
   5737   5752     1
   5737   5753     1
   5738   5741     1
   5738   5751     1
   5739   5741     1
   5739   5751     1
   5740   5745     1
   5740   5746     1
   5740   5755     1
   5740   5756     1
   5741   5752     1
   5741   5753     1
   5742   5747     1
   5742   5745     1
   5742   5746     1
   5742   5751     1
   5743   5747     1
   5743   5745     1
   5743   5746     1
   5743   5751     1
   5744   5750     1
   5745   5748     1
   5745   5749     1
   5746   5748     1
   5746   5749     1
   5748   5750     1
   5752   5757     1
   5752   5755     1
   5752   5756     1
   5753   5757     1
   5753   5755     1
   5753   5756     1
   5754   5760     1
   5755   5758     1
   5755   5759     1
   5756   5758     1
   5756   5759     1
   5758   5760     1
   5762   5769     1
   5762   5770     1
   5763   5768     1
   5763   5766     1
   5763   5767     1
   5764   5768     1
   5764   5766     1
   5764   5767     1
   5766   5792     1
   5766   5771     1
   5766   5769     1
   5766   5770     1
   5767   5792     1
   5767   5771     1
   5767   5769     1
   5767   5770     1
   5768   5773     1
   5768   5774     1
   5768   5783     1
   5768   5784     1
   5769   5772     1
   5769   5782     1
   5770   5772     1
   5770   5782     1
   5771   5776     1
   5771   5777     1
   5771   5786     1
   5771   5787     1
   5772   5783     1
   5772   5784     1
   5773   5782     1
   5773   5778     1
   5773   5776     1
   5773   5777     1
   5774   5782     1
   5774   5778     1
   5774   5776     1
   5774   5777     1
   5775   5781     1
   5776   5779     1
   5776   5780     1
   5777   5779     1
   5777   5780     1
   5779   5781     1
   5783   5788     1
   5783   5786     1
   5783   5787     1
   5784   5788     1
   5784   5786     1
   5784   5787     1
   5785   5791     1
   5786   5789     1
   5786   5790     1
   5787   5789     1
   5787   5790     1
   5789   5791     1
   5793   5800     1
   5793   5801     1
   5794   5799     1
   5794   5797     1
   5794   5798     1
   5795   5799     1
   5795   5797     1
   5795   5798     1
   5797   5802     1
   5797   5800     1
   5797   5801     1
   5797   5823     1
   5798   5802     1
   5798   5800     1
   5798   5801     1
   5798   5823     1
   5799   5804     1
   5799   5805     1
   5799   5814     1
   5799   5815     1
   5800   5803     1
   5800   5813     1
   5801   5803     1
   5801   5813     1
   5802   5807     1
   5802   5808     1
   5802   5817     1
   5802   5818     1
   5803   5814     1
   5803   5815     1
   5804   5809     1
   5804   5807     1
   5804   5808     1
   5804   5813     1
   5805   5809     1
   5805   5807     1
   5805   5808     1
   5805   5813     1
   5806   5812     1
   5807   5810     1
   5807   5811     1
   5808   5810     1
   5808   5811     1
   5810   5812     1
   5814   5819     1
   5814   5817     1
   5814   5818     1
   5815   5819     1
   5815   5817     1
   5815   5818     1
   5816   5822     1
   5817   5820     1
   5817   5821     1
   5818   5820     1
   5818   5821     1
   5820   5822     1
   5824   5831     1
   5824   5832     1
   5825   5830     1
   5825   5828     1
   5825   5829     1
   5826   5830     1
   5826   5828     1
   5826   5829     1
   5828   5854     1
   5828   5833     1
   5828   5831     1
   5828   5832     1
   5829   5854     1
   5829   5833     1
   5829   5831     1
   5829   5832     1
   5830   5835     1
   5830   5836     1
   5830   5845     1
   5830   5846     1
   5831   5834     1
   5831   5844     1
   5832   5834     1
   5832   5844     1
   5833   5838     1
   5833   5839     1
   5833   5848     1
   5833   5849     1
   5834   5845     1
   5834   5846     1
   5835   5844     1
   5835   5840     1
   5835   5838     1
   5835   5839     1
   5836   5844     1
   5836   5840     1
   5836   5838     1
   5836   5839     1
   5837   5843     1
   5838   5841     1
   5838   5842     1
   5839   5841     1
   5839   5842     1
   5841   5843     1
   5845   5850     1
   5845   5848     1
   5845   5849     1
   5846   5850     1
   5846   5848     1
   5846   5849     1
   5847   5853     1
   5848   5851     1
   5848   5852     1
   5849   5851     1
   5849   5852     1
   5851   5853     1
   5855   5862     1
   5855   5863     1
   5856   5861     1
   5856   5859     1
   5856   5860     1
   5857   5861     1
   5857   5859     1
   5857   5860     1
   5859   5864     1
   5859   5862     1
   5859   5863     1
   5859   5885     1
   5860   5864     1
   5860   5862     1
   5860   5863     1
   5860   5885     1
   5861   5866     1
   5861   5867     1
   5861   5876     1
   5861   5877     1
   5862   5865     1
   5862   5875     1
   5863   5865     1
   5863   5875     1
   5864   5869     1
   5864   5870     1
   5864   5879     1
   5864   5880     1
   5865   5876     1
   5865   5877     1
   5866   5871     1
   5866   5869     1
   5866   5870     1
   5866   5875     1
   5867   5871     1
   5867   5869     1
   5867   5870     1
   5867   5875     1
   5868   5874     1
   5869   5872     1
   5869   5873     1
   5870   5872     1
   5870   5873     1
   5872   5874     1
   5876   5881     1
   5876   5879     1
   5876   5880     1
   5877   5881     1
   5877   5879     1
   5877   5880     1
   5878   5884     1
   5879   5882     1
   5879   5883     1
   5880   5882     1
   5880   5883     1
   5882   5884     1
   5886   5893     1
   5886   5894     1
   5887   5892     1
   5887   5890     1
   5887   5891     1
   5888   5892     1
   5888   5890     1
   5888   5891     1
   5890   5916     1
   5890   5895     1
   5890   5893     1
   5890   5894     1
   5891   5916     1
   5891   5895     1
   5891   5893     1
   5891   5894     1
   5892   5897     1
   5892   5898     1
   5892   5907     1
   5892   5908     1
   5893   5896     1
   5893   5906     1
   5894   5896     1
   5894   5906     1
   5895   5900     1
   5895   5901     1
   5895   5910     1
   5895   5911     1
   5896   5907     1
   5896   5908     1
   5897   5906     1
   5897   5902     1
   5897   5900     1
   5897   5901     1
   5898   5906     1
   5898   5902     1
   5898   5900     1
   5898   5901     1
   5899   5905     1
   5900   5903     1
   5900   5904     1
   5901   5903     1
   5901   5904     1
   5903   5905     1
   5907   5912     1
   5907   5910     1
   5907   5911     1
   5908   5912     1
   5908   5910     1
   5908   5911     1
   5909   5915     1
   5910   5913     1
   5910   5914     1
   5911   5913     1
   5911   5914     1
   5913   5915     1
   5917   5924     1
   5917   5925     1
   5918   5923     1
   5918   5921     1
   5918   5922     1
   5919   5923     1
   5919   5921     1
   5919   5922     1
   5921   5926     1
   5921   5924     1
   5921   5925     1
   5921   5947     1
   5922   5926     1
   5922   5924     1
   5922   5925     1
   5922   5947     1
   5923   5928     1
   5923   5929     1
   5923   5938     1
   5923   5939     1
   5924   5927     1
   5924   5937     1
   5925   5927     1
   5925   5937     1
   5926   5931     1
   5926   5932     1
   5926   5941     1
   5926   5942     1
   5927   5938     1
   5927   5939     1
   5928   5933     1
   5928   5931     1
   5928   5932     1
   5928   5937     1
   5929   5933     1
   5929   5931     1
   5929   5932     1
   5929   5937     1
   5930   5936     1
   5931   5934     1
   5931   5935     1
   5932   5934     1
   5932   5935     1
   5934   5936     1
   5938   5943     1
   5938   5941     1
   5938   5942     1
   5939   5943     1
   5939   5941     1
   5939   5942     1
   5940   5946     1
   5941   5944     1
   5941   5945     1
   5942   5944     1
   5942   5945     1
   5944   5946     1
   5948   5955     1
   5948   5956     1
   5949   5954     1
   5949   5952     1
   5949   5953     1
   5950   5954     1
   5950   5952     1
   5950   5953     1
   5952   5978     1
   5952   5957     1
   5952   5955     1
   5952   5956     1
   5953   5978     1
   5953   5957     1
   5953   5955     1
   5953   5956     1
   5954   5959     1
   5954   5960     1
   5954   5969     1
   5954   5970     1
   5955   5958     1
   5955   5968     1
   5956   5958     1
   5956   5968     1
   5957   5962     1
   5957   5963     1
   5957   5972     1
   5957   5973     1
   5958   5969     1
   5958   5970     1
   5959   5968     1
   5959   5964     1
   5959   5962     1
   5959   5963     1
   5960   5968     1
   5960   5964     1
   5960   5962     1
   5960   5963     1
   5961   5967     1
   5962   5965     1
   5962   5966     1
   5963   5965     1
   5963   5966     1
   5965   5967     1
   5969   5974     1
   5969   5972     1
   5969   5973     1
   5970   5974     1
   5970   5972     1
   5970   5973     1
   5971   5977     1
   5972   5975     1
   5972   5976     1
   5973   5975     1
   5973   5976     1
   5975   5977     1
   5979   5986     1
   5979   5987     1
   5980   5985     1
   5980   5983     1
   5980   5984     1
   5981   5985     1
   5981   5983     1
   5981   5984     1
   5983   5988     1
   5983   5986     1
   5983   5987     1
   5983   6009     1
   5984   5988     1
   5984   5986     1
   5984   5987     1
   5984   6009     1
   5985   5990     1
   5985   5991     1
   5985   6000     1
   5985   6001     1
   5986   5989     1
   5986   5999     1
   5987   5989     1
   5987   5999     1
   5988   5993     1
   5988   5994     1
   5988   6003     1
   5988   6004     1
   5989   6000     1
   5989   6001     1
   5990   5995     1
   5990   5993     1
   5990   5994     1
   5990   5999     1
   5991   5995     1
   5991   5993     1
   5991   5994     1
   5991   5999     1
   5992   5998     1
   5993   5996     1
   5993   5997     1
   5994   5996     1
   5994   5997     1
   5996   5998     1
   6000   6005     1
   6000   6003     1
   6000   6004     1
   6001   6005     1
   6001   6003     1
   6001   6004     1
   6002   6008     1
   6003   6006     1
   6003   6007     1
   6004   6006     1
   6004   6007     1
   6006   6008     1
   6010   6017     1
   6010   6018     1
   6011   6016     1
   6011   6014     1
   6011   6015     1
   6012   6016     1
   6012   6014     1
   6012   6015     1
   6014   6040     1
   6014   6019     1
   6014   6017     1
   6014   6018     1
   6015   6040     1
   6015   6019     1
   6015   6017     1
   6015   6018     1
   6016   6021     1
   6016   6022     1
   6016   6031     1
   6016   6032     1
   6017   6020     1
   6017   6030     1
   6018   6020     1
   6018   6030     1
   6019   6024     1
   6019   6025     1
   6019   6034     1
   6019   6035     1
   6020   6031     1
   6020   6032     1
   6021   6030     1
   6021   6026     1
   6021   6024     1
   6021   6025     1
   6022   6030     1
   6022   6026     1
   6022   6024     1
   6022   6025     1
   6023   6029     1
   6024   6027     1
   6024   6028     1
   6025   6027     1
   6025   6028     1
   6027   6029     1
   6031   6036     1
   6031   6034     1
   6031   6035     1
   6032   6036     1
   6032   6034     1
   6032   6035     1
   6033   6039     1
   6034   6037     1
   6034   6038     1
   6035   6037     1
   6035   6038     1
   6037   6039     1
   6041   6048     1
   6041   6049     1
   6042   6047     1
   6042   6045     1
   6042   6046     1
   6043   6047     1
   6043   6045     1
   6043   6046     1
   6045   6050     1
   6045   6048     1
   6045   6049     1
   6045   6071     1
   6046   6050     1
   6046   6048     1
   6046   6049     1
   6046   6071     1
   6047   6052     1
   6047   6053     1
   6047   6062     1
   6047   6063     1
   6048   6051     1
   6048   6061     1
   6049   6051     1
   6049   6061     1
   6050   6055     1
   6050   6056     1
   6050   6065     1
   6050   6066     1
   6051   6062     1
   6051   6063     1
   6052   6057     1
   6052   6055     1
   6052   6056     1
   6052   6061     1
   6053   6057     1
   6053   6055     1
   6053   6056     1
   6053   6061     1
   6054   6060     1
   6055   6058     1
   6055   6059     1
   6056   6058     1
   6056   6059     1
   6058   6060     1
   6062   6067     1
   6062   6065     1
   6062   6066     1
   6063   6067     1
   6063   6065     1
   6063   6066     1
   6064   6070     1
   6065   6068     1
   6065   6069     1
   6066   6068     1
   6066   6069     1
   6068   6070     1
   6072   6079     1
   6072   6080     1
   6073   6078     1
   6073   6076     1
   6073   6077     1
   6074   6078     1
   6074   6076     1
   6074   6077     1
   6076   6102     1
   6076   6081     1
   6076   6079     1
   6076   6080     1
   6077   6102     1
   6077   6081     1
   6077   6079     1
   6077   6080     1
   6078   6083     1
   6078   6084     1
   6078   6093     1
   6078   6094     1
   6079   6082     1
   6079   6092     1
   6080   6082     1
   6080   6092     1
   6081   6086     1
   6081   6087     1
   6081   6096     1
   6081   6097     1
   6082   6093     1
   6082   6094     1
   6083   6092     1
   6083   6088     1
   6083   6086     1
   6083   6087     1
   6084   6092     1
   6084   6088     1
   6084   6086     1
   6084   6087     1
   6085   6091     1
   6086   6089     1
   6086   6090     1
   6087   6089     1
   6087   6090     1
   6089   6091     1
   6093   6098     1
   6093   6096     1
   6093   6097     1
   6094   6098     1
   6094   6096     1
   6094   6097     1
   6095   6101     1
   6096   6099     1
   6096   6100     1
   6097   6099     1
   6097   6100     1
   6099   6101     1
   6103   6110     1
   6103   6111     1
   6104   6109     1
   6104   6107     1
   6104   6108     1
   6105   6109     1
   6105   6107     1
   6105   6108     1
   6107   6112     1
   6107   6110     1
   6107   6111     1
   6107   6133     1
   6108   6112     1
   6108   6110     1
   6108   6111     1
   6108   6133     1
   6109   6114     1
   6109   6115     1
   6109   6124     1
   6109   6125     1
   6110   6113     1
   6110   6123     1
   6111   6113     1
   6111   6123     1
   6112   6117     1
   6112   6118     1
   6112   6127     1
   6112   6128     1
   6113   6124     1
   6113   6125     1
   6114   6119     1
   6114   6117     1
   6114   6118     1
   6114   6123     1
   6115   6119     1
   6115   6117     1
   6115   6118     1
   6115   6123     1
   6116   6122     1
   6117   6120     1
   6117   6121     1
   6118   6120     1
   6118   6121     1
   6120   6122     1
   6124   6129     1
   6124   6127     1
   6124   6128     1
   6125   6129     1
   6125   6127     1
   6125   6128     1
   6126   6132     1
   6127   6130     1
   6127   6131     1
   6128   6130     1
   6128   6131     1
   6130   6132     1
   6134   6141     1
   6134   6142     1
   6135   6140     1
   6135   6138     1
   6135   6139     1
   6136   6140     1
   6136   6138     1
   6136   6139     1
   6138   6164     1
   6138   6143     1
   6138   6141     1
   6138   6142     1
   6139   6164     1
   6139   6143     1
   6139   6141     1
   6139   6142     1
   6140   6145     1
   6140   6146     1
   6140   6155     1
   6140   6156     1
   6141   6144     1
   6141   6154     1
   6142   6144     1
   6142   6154     1
   6143   6148     1
   6143   6149     1
   6143   6158     1
   6143   6159     1
   6144   6155     1
   6144   6156     1
   6145   6154     1
   6145   6150     1
   6145   6148     1
   6145   6149     1
   6146   6154     1
   6146   6150     1
   6146   6148     1
   6146   6149     1
   6147   6153     1
   6148   6151     1
   6148   6152     1
   6149   6151     1
   6149   6152     1
   6151   6153     1
   6155   6160     1
   6155   6158     1
   6155   6159     1
   6156   6160     1
   6156   6158     1
   6156   6159     1
   6157   6163     1
   6158   6161     1
   6158   6162     1
   6159   6161     1
   6159   6162     1
   6161   6163     1
   6165   6172     1
   6165   6173     1
   6166   6171     1
   6166   6169     1
   6166   6170     1
   6167   6171     1
   6167   6169     1
   6167   6170     1
   6169   6174     1
   6169   6172     1
   6169   6173     1
   6169   6195     1
   6170   6174     1
   6170   6172     1
   6170   6173     1
   6170   6195     1
   6171   6176     1
   6171   6177     1
   6171   6186     1
   6171   6187     1
   6172   6175     1
   6172   6185     1
   6173   6175     1
   6173   6185     1
   6174   6179     1
   6174   6180     1
   6174   6189     1
   6174   6190     1
   6175   6186     1
   6175   6187     1
   6176   6181     1
   6176   6179     1
   6176   6180     1
   6176   6185     1
   6177   6181     1
   6177   6179     1
   6177   6180     1
   6177   6185     1
   6178   6184     1
   6179   6182     1
   6179   6183     1
   6180   6182     1
   6180   6183     1
   6182   6184     1
   6186   6191     1
   6186   6189     1
   6186   6190     1
   6187   6191     1
   6187   6189     1
   6187   6190     1
   6188   6194     1
   6189   6192     1
   6189   6193     1
   6190   6192     1
   6190   6193     1
   6192   6194     1
   6196   6203     1
   6196   6204     1
   6197   6202     1
   6197   6200     1
   6197   6201     1
   6198   6202     1
   6198   6200     1
   6198   6201     1
   6200   6226     1
   6200   6205     1
   6200   6203     1
   6200   6204     1
   6201   6226     1
   6201   6205     1
   6201   6203     1
   6201   6204     1
   6202   6207     1
   6202   6208     1
   6202   6217     1
   6202   6218     1
   6203   6206     1
   6203   6216     1
   6204   6206     1
   6204   6216     1
   6205   6210     1
   6205   6211     1
   6205   6220     1
   6205   6221     1
   6206   6217     1
   6206   6218     1
   6207   6216     1
   6207   6212     1
   6207   6210     1
   6207   6211     1
   6208   6216     1
   6208   6212     1
   6208   6210     1
   6208   6211     1
   6209   6215     1
   6210   6213     1
   6210   6214     1
   6211   6213     1
   6211   6214     1
   6213   6215     1
   6217   6222     1
   6217   6220     1
   6217   6221     1
   6218   6222     1
   6218   6220     1
   6218   6221     1
   6219   6225     1
   6220   6223     1
   6220   6224     1
   6221   6223     1
   6221   6224     1
   6223   6225     1
   6227   6234     1
   6227   6235     1
   6228   6233     1
   6228   6231     1
   6228   6232     1
   6229   6233     1
   6229   6231     1
   6229   6232     1
   6231   6236     1
   6231   6234     1
   6231   6235     1
   6231   6257     1
   6232   6236     1
   6232   6234     1
   6232   6235     1
   6232   6257     1
   6233   6238     1
   6233   6239     1
   6233   6248     1
   6233   6249     1
   6234   6237     1
   6234   6247     1
   6235   6237     1
   6235   6247     1
   6236   6241     1
   6236   6242     1
   6236   6251     1
   6236   6252     1
   6237   6248     1
   6237   6249     1
   6238   6243     1
   6238   6241     1
   6238   6242     1
   6238   6247     1
   6239   6243     1
   6239   6241     1
   6239   6242     1
   6239   6247     1
   6240   6246     1
   6241   6244     1
   6241   6245     1
   6242   6244     1
   6242   6245     1
   6244   6246     1
   6248   6253     1
   6248   6251     1
   6248   6252     1
   6249   6253     1
   6249   6251     1
   6249   6252     1
   6250   6256     1
   6251   6254     1
   6251   6255     1
   6252   6254     1
   6252   6255     1
   6254   6256     1
   6258   6265     1
   6258   6266     1
   6259   6264     1
   6259   6262     1
   6259   6263     1
   6260   6264     1
   6260   6262     1
   6260   6263     1
   6262   6288     1
   6262   6267     1
   6262   6265     1
   6262   6266     1
   6263   6288     1
   6263   6267     1
   6263   6265     1
   6263   6266     1
   6264   6269     1
   6264   6270     1
   6264   6279     1
   6264   6280     1
   6265   6268     1
   6265   6278     1
   6266   6268     1
   6266   6278     1
   6267   6272     1
   6267   6273     1
   6267   6282     1
   6267   6283     1
   6268   6279     1
   6268   6280     1
   6269   6278     1
   6269   6274     1
   6269   6272     1
   6269   6273     1
   6270   6278     1
   6270   6274     1
   6270   6272     1
   6270   6273     1
   6271   6277     1
   6272   6275     1
   6272   6276     1
   6273   6275     1
   6273   6276     1
   6275   6277     1
   6279   6284     1
   6279   6282     1
   6279   6283     1
   6280   6284     1
   6280   6282     1
   6280   6283     1
   6281   6287     1
   6282   6285     1
   6282   6286     1
   6283   6285     1
   6283   6286     1
   6285   6287     1
   6289   6296     1
   6289   6297     1
   6290   6295     1
   6290   6293     1
   6290   6294     1
   6291   6295     1
   6291   6293     1
   6291   6294     1
   6293   6298     1
   6293   6296     1
   6293   6297     1
   6293   6319     1
   6294   6298     1
   6294   6296     1
   6294   6297     1
   6294   6319     1
   6295   6300     1
   6295   6301     1
   6295   6310     1
   6295   6311     1
   6296   6299     1
   6296   6309     1
   6297   6299     1
   6297   6309     1
   6298   6303     1
   6298   6304     1
   6298   6313     1
   6298   6314     1
   6299   6310     1
   6299   6311     1
   6300   6305     1
   6300   6303     1
   6300   6304     1
   6300   6309     1
   6301   6305     1
   6301   6303     1
   6301   6304     1
   6301   6309     1
   6302   6308     1
   6303   6306     1
   6303   6307     1
   6304   6306     1
   6304   6307     1
   6306   6308     1
   6310   6315     1
   6310   6313     1
   6310   6314     1
   6311   6315     1
   6311   6313     1
   6311   6314     1
   6312   6318     1
   6313   6316     1
   6313   6317     1
   6314   6316     1
   6314   6317     1
   6316   6318     1
   6320   6327     1
   6320   6328     1
   6321   6326     1
   6321   6324     1
   6321   6325     1
   6322   6326     1
   6322   6324     1
   6322   6325     1
   6324   6350     1
   6324   6329     1
   6324   6327     1
   6324   6328     1
   6325   6350     1
   6325   6329     1
   6325   6327     1
   6325   6328     1
   6326   6331     1
   6326   6332     1
   6326   6341     1
   6326   6342     1
   6327   6330     1
   6327   6340     1
   6328   6330     1
   6328   6340     1
   6329   6334     1
   6329   6335     1
   6329   6344     1
   6329   6345     1
   6330   6341     1
   6330   6342     1
   6331   6340     1
   6331   6336     1
   6331   6334     1
   6331   6335     1
   6332   6340     1
   6332   6336     1
   6332   6334     1
   6332   6335     1
   6333   6339     1
   6334   6337     1
   6334   6338     1
   6335   6337     1
   6335   6338     1
   6337   6339     1
   6341   6346     1
   6341   6344     1
   6341   6345     1
   6342   6346     1
   6342   6344     1
   6342   6345     1
   6343   6349     1
   6344   6347     1
   6344   6348     1
   6345   6347     1
   6345   6348     1
   6347   6349     1
   6351   6358     1
   6351   6359     1
   6352   6357     1
   6352   6355     1
   6352   6356     1
   6353   6357     1
   6353   6355     1
   6353   6356     1
   6355   6360     1
   6355   6358     1
   6355   6359     1
   6355   6381     1
   6356   6360     1
   6356   6358     1
   6356   6359     1
   6356   6381     1
   6357   6362     1
   6357   6363     1
   6357   6372     1
   6357   6373     1
   6358   6361     1
   6358   6371     1
   6359   6361     1
   6359   6371     1
   6360   6365     1
   6360   6366     1
   6360   6375     1
   6360   6376     1
   6361   6372     1
   6361   6373     1
   6362   6367     1
   6362   6365     1
   6362   6366     1
   6362   6371     1
   6363   6367     1
   6363   6365     1
   6363   6366     1
   6363   6371     1
   6364   6370     1
   6365   6368     1
   6365   6369     1
   6366   6368     1
   6366   6369     1
   6368   6370     1
   6372   6377     1
   6372   6375     1
   6372   6376     1
   6373   6377     1
   6373   6375     1
   6373   6376     1
   6374   6380     1
   6375   6378     1
   6375   6379     1
   6376   6378     1
   6376   6379     1
   6378   6380     1
   6382   6389     1
   6382   6390     1
   6383   6388     1
   6383   6386     1
   6383   6387     1
   6384   6388     1
   6384   6386     1
   6384   6387     1
   6386   6412     1
   6386   6391     1
   6386   6389     1
   6386   6390     1
   6387   6412     1
   6387   6391     1
   6387   6389     1
   6387   6390     1
   6388   6393     1
   6388   6394     1
   6388   6403     1
   6388   6404     1
   6389   6392     1
   6389   6402     1
   6390   6392     1
   6390   6402     1
   6391   6396     1
   6391   6397     1
   6391   6406     1
   6391   6407     1
   6392   6403     1
   6392   6404     1
   6393   6402     1
   6393   6398     1
   6393   6396     1
   6393   6397     1
   6394   6402     1
   6394   6398     1
   6394   6396     1
   6394   6397     1
   6395   6401     1
   6396   6399     1
   6396   6400     1
   6397   6399     1
   6397   6400     1
   6399   6401     1
   6403   6408     1
   6403   6406     1
   6403   6407     1
   6404   6408     1
   6404   6406     1
   6404   6407     1
   6405   6411     1
   6406   6409     1
   6406   6410     1
   6407   6409     1
   6407   6410     1
   6409   6411     1
   6413   6420     1
   6413   6421     1
   6414   6419     1
   6414   6417     1
   6414   6418     1
   6415   6419     1
   6415   6417     1
   6415   6418     1
   6417   6422     1
   6417   6420     1
   6417   6421     1
   6417   6443     1
   6418   6422     1
   6418   6420     1
   6418   6421     1
   6418   6443     1
   6419   6424     1
   6419   6425     1
   6419   6434     1
   6419   6435     1
   6420   6423     1
   6420   6433     1
   6421   6423     1
   6421   6433     1
   6422   6427     1
   6422   6428     1
   6422   6437     1
   6422   6438     1
   6423   6434     1
   6423   6435     1
   6424   6429     1
   6424   6427     1
   6424   6428     1
   6424   6433     1
   6425   6429     1
   6425   6427     1
   6425   6428     1
   6425   6433     1
   6426   6432     1
   6427   6430     1
   6427   6431     1
   6428   6430     1
   6428   6431     1
   6430   6432     1
   6434   6439     1
   6434   6437     1
   6434   6438     1
   6435   6439     1
   6435   6437     1
   6435   6438     1
   6436   6442     1
   6437   6440     1
   6437   6441     1
   6438   6440     1
   6438   6441     1
   6440   6442     1
   6444   6451     1
   6444   6452     1
   6445   6450     1
   6445   6448     1
   6445   6449     1
   6446   6450     1
   6446   6448     1
   6446   6449     1
   6448   6474     1
   6448   6453     1
   6448   6451     1
   6448   6452     1
   6449   6474     1
   6449   6453     1
   6449   6451     1
   6449   6452     1
   6450   6455     1
   6450   6456     1
   6450   6465     1
   6450   6466     1
   6451   6454     1
   6451   6464     1
   6452   6454     1
   6452   6464     1
   6453   6458     1
   6453   6459     1
   6453   6468     1
   6453   6469     1
   6454   6465     1
   6454   6466     1
   6455   6464     1
   6455   6460     1
   6455   6458     1
   6455   6459     1
   6456   6464     1
   6456   6460     1
   6456   6458     1
   6456   6459     1
   6457   6463     1
   6458   6461     1
   6458   6462     1
   6459   6461     1
   6459   6462     1
   6461   6463     1
   6465   6470     1
   6465   6468     1
   6465   6469     1
   6466   6470     1
   6466   6468     1
   6466   6469     1
   6467   6473     1
   6468   6471     1
   6468   6472     1
   6469   6471     1
   6469   6472     1
   6471   6473     1
   6475   6482     1
   6475   6483     1
   6476   6481     1
   6476   6479     1
   6476   6480     1
   6477   6481     1
   6477   6479     1
   6477   6480     1
   6479   6484     1
   6479   6482     1
   6479   6483     1
   6479   6505     1
   6480   6484     1
   6480   6482     1
   6480   6483     1
   6480   6505     1
   6481   6486     1
   6481   6487     1
   6481   6496     1
   6481   6497     1
   6482   6485     1
   6482   6495     1
   6483   6485     1
   6483   6495     1
   6484   6489     1
   6484   6490     1
   6484   6499     1
   6484   6500     1
   6485   6496     1
   6485   6497     1
   6486   6491     1
   6486   6489     1
   6486   6490     1
   6486   6495     1
   6487   6491     1
   6487   6489     1
   6487   6490     1
   6487   6495     1
   6488   6494     1
   6489   6492     1
   6489   6493     1
   6490   6492     1
   6490   6493     1
   6492   6494     1
   6496   6501     1
   6496   6499     1
   6496   6500     1
   6497   6501     1
   6497   6499     1
   6497   6500     1
   6498   6504     1
   6499   6502     1
   6499   6503     1
   6500   6502     1
   6500   6503     1
   6502   6504     1
   6506   6513     1
   6506   6514     1
   6507   6512     1
   6507   6510     1
   6507   6511     1
   6508   6512     1
   6508   6510     1
   6508   6511     1
   6510   6536     1
   6510   6515     1
   6510   6513     1
   6510   6514     1
   6511   6536     1
   6511   6515     1
   6511   6513     1
   6511   6514     1
   6512   6517     1
   6512   6518     1
   6512   6527     1
   6512   6528     1
   6513   6516     1
   6513   6526     1
   6514   6516     1
   6514   6526     1
   6515   6520     1
   6515   6521     1
   6515   6530     1
   6515   6531     1
   6516   6527     1
   6516   6528     1
   6517   6526     1
   6517   6522     1
   6517   6520     1
   6517   6521     1
   6518   6526     1
   6518   6522     1
   6518   6520     1
   6518   6521     1
   6519   6525     1
   6520   6523     1
   6520   6524     1
   6521   6523     1
   6521   6524     1
   6523   6525     1
   6527   6532     1
   6527   6530     1
   6527   6531     1
   6528   6532     1
   6528   6530     1
   6528   6531     1
   6529   6535     1
   6530   6533     1
   6530   6534     1
   6531   6533     1
   6531   6534     1
   6533   6535     1
   6537   6544     1
   6537   6545     1
   6538   6543     1
   6538   6541     1
   6538   6542     1
   6539   6543     1
   6539   6541     1
   6539   6542     1
   6541   6546     1
   6541   6544     1
   6541   6545     1
   6541   6567     1
   6542   6546     1
   6542   6544     1
   6542   6545     1
   6542   6567     1
   6543   6548     1
   6543   6549     1
   6543   6558     1
   6543   6559     1
   6544   6547     1
   6544   6557     1
   6545   6547     1
   6545   6557     1
   6546   6551     1
   6546   6552     1
   6546   6561     1
   6546   6562     1
   6547   6558     1
   6547   6559     1
   6548   6553     1
   6548   6551     1
   6548   6552     1
   6548   6557     1
   6549   6553     1
   6549   6551     1
   6549   6552     1
   6549   6557     1
   6550   6556     1
   6551   6554     1
   6551   6555     1
   6552   6554     1
   6552   6555     1
   6554   6556     1
   6558   6563     1
   6558   6561     1
   6558   6562     1
   6559   6563     1
   6559   6561     1
   6559   6562     1
   6560   6566     1
   6561   6564     1
   6561   6565     1
   6562   6564     1
   6562   6565     1
   6564   6566     1
   6568   6575     1
   6568   6576     1
   6569   6574     1
   6569   6572     1
   6569   6573     1
   6570   6574     1
   6570   6572     1
   6570   6573     1
   6572   6598     1
   6572   6577     1
   6572   6575     1
   6572   6576     1
   6573   6598     1
   6573   6577     1
   6573   6575     1
   6573   6576     1
   6574   6579     1
   6574   6580     1
   6574   6589     1
   6574   6590     1
   6575   6578     1
   6575   6588     1
   6576   6578     1
   6576   6588     1
   6577   6582     1
   6577   6583     1
   6577   6592     1
   6577   6593     1
   6578   6589     1
   6578   6590     1
   6579   6588     1
   6579   6584     1
   6579   6582     1
   6579   6583     1
   6580   6588     1
   6580   6584     1
   6580   6582     1
   6580   6583     1
   6581   6587     1
   6582   6585     1
   6582   6586     1
   6583   6585     1
   6583   6586     1
   6585   6587     1
   6589   6594     1
   6589   6592     1
   6589   6593     1
   6590   6594     1
   6590   6592     1
   6590   6593     1
   6591   6597     1
   6592   6595     1
   6592   6596     1
   6593   6595     1
   6593   6596     1
   6595   6597     1
   6599   6606     1
   6599   6607     1
   6600   6605     1
   6600   6603     1
   6600   6604     1
   6601   6605     1
   6601   6603     1
   6601   6604     1
   6603   6608     1
   6603   6606     1
   6603   6607     1
   6603   6629     1
   6604   6608     1
   6604   6606     1
   6604   6607     1
   6604   6629     1
   6605   6610     1
   6605   6611     1
   6605   6620     1
   6605   6621     1
   6606   6609     1
   6606   6619     1
   6607   6609     1
   6607   6619     1
   6608   6613     1
   6608   6614     1
   6608   6623     1
   6608   6624     1
   6609   6620     1
   6609   6621     1
   6610   6615     1
   6610   6613     1
   6610   6614     1
   6610   6619     1
   6611   6615     1
   6611   6613     1
   6611   6614     1
   6611   6619     1
   6612   6618     1
   6613   6616     1
   6613   6617     1
   6614   6616     1
   6614   6617     1
   6616   6618     1
   6620   6625     1
   6620   6623     1
   6620   6624     1
   6621   6625     1
   6621   6623     1
   6621   6624     1
   6622   6628     1
   6623   6626     1
   6623   6627     1
   6624   6626     1
   6624   6627     1
   6626   6628     1
   6630   6637     1
   6630   6638     1
   6631   6636     1
   6631   6634     1
   6631   6635     1
   6632   6636     1
   6632   6634     1
   6632   6635     1
   6634   6660     1
   6634   6639     1
   6634   6637     1
   6634   6638     1
   6635   6660     1
   6635   6639     1
   6635   6637     1
   6635   6638     1
   6636   6641     1
   6636   6642     1
   6636   6651     1
   6636   6652     1
   6637   6640     1
   6637   6650     1
   6638   6640     1
   6638   6650     1
   6639   6644     1
   6639   6645     1
   6639   6654     1
   6639   6655     1
   6640   6651     1
   6640   6652     1
   6641   6650     1
   6641   6646     1
   6641   6644     1
   6641   6645     1
   6642   6650     1
   6642   6646     1
   6642   6644     1
   6642   6645     1
   6643   6649     1
   6644   6647     1
   6644   6648     1
   6645   6647     1
   6645   6648     1
   6647   6649     1
   6651   6656     1
   6651   6654     1
   6651   6655     1
   6652   6656     1
   6652   6654     1
   6652   6655     1
   6653   6659     1
   6654   6657     1
   6654   6658     1
   6655   6657     1
   6655   6658     1
   6657   6659     1
   6661   6668     1
   6661   6669     1
   6662   6667     1
   6662   6665     1
   6662   6666     1
   6663   6667     1
   6663   6665     1
   6663   6666     1
   6665   6670     1
   6665   6668     1
   6665   6669     1
   6665   6691     1
   6666   6670     1
   6666   6668     1
   6666   6669     1
   6666   6691     1
   6667   6672     1
   6667   6673     1
   6667   6682     1
   6667   6683     1
   6668   6671     1
   6668   6681     1
   6669   6671     1
   6669   6681     1
   6670   6675     1
   6670   6676     1
   6670   6685     1
   6670   6686     1
   6671   6682     1
   6671   6683     1
   6672   6677     1
   6672   6675     1
   6672   6676     1
   6672   6681     1
   6673   6677     1
   6673   6675     1
   6673   6676     1
   6673   6681     1
   6674   6680     1
   6675   6678     1
   6675   6679     1
   6676   6678     1
   6676   6679     1
   6678   6680     1
   6682   6687     1
   6682   6685     1
   6682   6686     1
   6683   6687     1
   6683   6685     1
   6683   6686     1
   6684   6690     1
   6685   6688     1
   6685   6689     1
   6686   6688     1
   6686   6689     1
   6688   6690     1
   6692   6699     1
   6692   6700     1
   6693   6698     1
   6693   6696     1
   6693   6697     1
   6694   6698     1
   6694   6696     1
   6694   6697     1
   6696   6722     1
   6696   6701     1
   6696   6699     1
   6696   6700     1
   6697   6722     1
   6697   6701     1
   6697   6699     1
   6697   6700     1
   6698   6703     1
   6698   6704     1
   6698   6713     1
   6698   6714     1
   6699   6702     1
   6699   6712     1
   6700   6702     1
   6700   6712     1
   6701   6706     1
   6701   6707     1
   6701   6716     1
   6701   6717     1
   6702   6713     1
   6702   6714     1
   6703   6712     1
   6703   6708     1
   6703   6706     1
   6703   6707     1
   6704   6712     1
   6704   6708     1
   6704   6706     1
   6704   6707     1
   6705   6711     1
   6706   6709     1
   6706   6710     1
   6707   6709     1
   6707   6710     1
   6709   6711     1
   6713   6718     1
   6713   6716     1
   6713   6717     1
   6714   6718     1
   6714   6716     1
   6714   6717     1
   6715   6721     1
   6716   6719     1
   6716   6720     1
   6717   6719     1
   6717   6720     1
   6719   6721     1
   6723   6730     1
   6723   6731     1
   6724   6729     1
   6724   6727     1
   6724   6728     1
   6725   6729     1
   6725   6727     1
   6725   6728     1
   6727   6732     1
   6727   6730     1
   6727   6731     1
   6727   6753     1
   6728   6732     1
   6728   6730     1
   6728   6731     1
   6728   6753     1
   6729   6734     1
   6729   6735     1
   6729   6744     1
   6729   6745     1
   6730   6733     1
   6730   6743     1
   6731   6733     1
   6731   6743     1
   6732   6737     1
   6732   6738     1
   6732   6747     1
   6732   6748     1
   6733   6744     1
   6733   6745     1
   6734   6739     1
   6734   6737     1
   6734   6738     1
   6734   6743     1
   6735   6739     1
   6735   6737     1
   6735   6738     1
   6735   6743     1
   6736   6742     1
   6737   6740     1
   6737   6741     1
   6738   6740     1
   6738   6741     1
   6740   6742     1
   6744   6749     1
   6744   6747     1
   6744   6748     1
   6745   6749     1
   6745   6747     1
   6745   6748     1
   6746   6752     1
   6747   6750     1
   6747   6751     1
   6748   6750     1
   6748   6751     1
   6750   6752     1
   6754   6761     1
   6754   6762     1
   6755   6760     1
   6755   6758     1
   6755   6759     1
   6756   6760     1
   6756   6758     1
   6756   6759     1
   6758   6784     1
   6758   6763     1
   6758   6761     1
   6758   6762     1
   6759   6784     1
   6759   6763     1
   6759   6761     1
   6759   6762     1
   6760   6765     1
   6760   6766     1
   6760   6775     1
   6760   6776     1
   6761   6764     1
   6761   6774     1
   6762   6764     1
   6762   6774     1
   6763   6768     1
   6763   6769     1
   6763   6778     1
   6763   6779     1
   6764   6775     1
   6764   6776     1
   6765   6774     1
   6765   6770     1
   6765   6768     1
   6765   6769     1
   6766   6774     1
   6766   6770     1
   6766   6768     1
   6766   6769     1
   6767   6773     1
   6768   6771     1
   6768   6772     1
   6769   6771     1
   6769   6772     1
   6771   6773     1
   6775   6780     1
   6775   6778     1
   6775   6779     1
   6776   6780     1
   6776   6778     1
   6776   6779     1
   6777   6783     1
   6778   6781     1
   6778   6782     1
   6779   6781     1
   6779   6782     1
   6781   6783     1
   6785   6792     1
   6785   6793     1
   6786   6791     1
   6786   6789     1
   6786   6790     1
   6787   6791     1
   6787   6789     1
   6787   6790     1
   6789   6794     1
   6789   6792     1
   6789   6793     1
   6789   6815     1
   6790   6794     1
   6790   6792     1
   6790   6793     1
   6790   6815     1
   6791   6796     1
   6791   6797     1
   6791   6806     1
   6791   6807     1
   6792   6795     1
   6792   6805     1
   6793   6795     1
   6793   6805     1
   6794   6799     1
   6794   6800     1
   6794   6809     1
   6794   6810     1
   6795   6806     1
   6795   6807     1
   6796   6801     1
   6796   6799     1
   6796   6800     1
   6796   6805     1
   6797   6801     1
   6797   6799     1
   6797   6800     1
   6797   6805     1
   6798   6804     1
   6799   6802     1
   6799   6803     1
   6800   6802     1
   6800   6803     1
   6802   6804     1
   6806   6811     1
   6806   6809     1
   6806   6810     1
   6807   6811     1
   6807   6809     1
   6807   6810     1
   6808   6814     1
   6809   6812     1
   6809   6813     1
   6810   6812     1
   6810   6813     1
   6812   6814     1
   6816   6823     1
   6816   6824     1
   6817   6822     1
   6817   6820     1
   6817   6821     1
   6818   6822     1
   6818   6820     1
   6818   6821     1
   6820   6846     1
   6820   6825     1
   6820   6823     1
   6820   6824     1
   6821   6846     1
   6821   6825     1
   6821   6823     1
   6821   6824     1
   6822   6827     1
   6822   6828     1
   6822   6837     1
   6822   6838     1
   6823   6826     1
   6823   6836     1
   6824   6826     1
   6824   6836     1
   6825   6830     1
   6825   6831     1
   6825   6840     1
   6825   6841     1
   6826   6837     1
   6826   6838     1
   6827   6836     1
   6827   6832     1
   6827   6830     1
   6827   6831     1
   6828   6836     1
   6828   6832     1
   6828   6830     1
   6828   6831     1
   6829   6835     1
   6830   6833     1
   6830   6834     1
   6831   6833     1
   6831   6834     1
   6833   6835     1
   6837   6842     1
   6837   6840     1
   6837   6841     1
   6838   6842     1
   6838   6840     1
   6838   6841     1
   6839   6845     1
   6840   6843     1
   6840   6844     1
   6841   6843     1
   6841   6844     1
   6843   6845     1
   6847   6854     1
   6847   6855     1
   6848   6853     1
   6848   6851     1
   6848   6852     1
   6849   6853     1
   6849   6851     1
   6849   6852     1
   6851   6856     1
   6851   6854     1
   6851   6855     1
   6851   6877     1
   6852   6856     1
   6852   6854     1
   6852   6855     1
   6852   6877     1
   6853   6858     1
   6853   6859     1
   6853   6868     1
   6853   6869     1
   6854   6857     1
   6854   6867     1
   6855   6857     1
   6855   6867     1
   6856   6861     1
   6856   6862     1
   6856   6871     1
   6856   6872     1
   6857   6868     1
   6857   6869     1
   6858   6863     1
   6858   6861     1
   6858   6862     1
   6858   6867     1
   6859   6863     1
   6859   6861     1
   6859   6862     1
   6859   6867     1
   6860   6866     1
   6861   6864     1
   6861   6865     1
   6862   6864     1
   6862   6865     1
   6864   6866     1
   6868   6873     1
   6868   6871     1
   6868   6872     1
   6869   6873     1
   6869   6871     1
   6869   6872     1
   6870   6876     1
   6871   6874     1
   6871   6875     1
   6872   6874     1
   6872   6875     1
   6874   6876     1
   6878   6885     1
   6878   6886     1
   6879   6884     1
   6879   6882     1
   6879   6883     1
   6880   6884     1
   6880   6882     1
   6880   6883     1
   6882   6908     1
   6882   6887     1
   6882   6885     1
   6882   6886     1
   6883   6908     1
   6883   6887     1
   6883   6885     1
   6883   6886     1
   6884   6889     1
   6884   6890     1
   6884   6899     1
   6884   6900     1
   6885   6888     1
   6885   6898     1
   6886   6888     1
   6886   6898     1
   6887   6892     1
   6887   6893     1
   6887   6902     1
   6887   6903     1
   6888   6899     1
   6888   6900     1
   6889   6898     1
   6889   6894     1
   6889   6892     1
   6889   6893     1
   6890   6898     1
   6890   6894     1
   6890   6892     1
   6890   6893     1
   6891   6897     1
   6892   6895     1
   6892   6896     1
   6893   6895     1
   6893   6896     1
   6895   6897     1
   6899   6904     1
   6899   6902     1
   6899   6903     1
   6900   6904     1
   6900   6902     1
   6900   6903     1
   6901   6907     1
   6902   6905     1
   6902   6906     1
   6903   6905     1
   6903   6906     1
   6905   6907     1
   6909   6916     1
   6909   6917     1
   6910   6915     1
   6910   6913     1
   6910   6914     1
   6911   6915     1
   6911   6913     1
   6911   6914     1
   6913   6918     1
   6913   6916     1
   6913   6917     1
   6913   6939     1
   6914   6918     1
   6914   6916     1
   6914   6917     1
   6914   6939     1
   6915   6920     1
   6915   6921     1
   6915   6930     1
   6915   6931     1
   6916   6919     1
   6916   6929     1
   6917   6919     1
   6917   6929     1
   6918   6923     1
   6918   6924     1
   6918   6933     1
   6918   6934     1
   6919   6930     1
   6919   6931     1
   6920   6925     1
   6920   6923     1
   6920   6924     1
   6920   6929     1
   6921   6925     1
   6921   6923     1
   6921   6924     1
   6921   6929     1
   6922   6928     1
   6923   6926     1
   6923   6927     1
   6924   6926     1
   6924   6927     1
   6926   6928     1
   6930   6935     1
   6930   6933     1
   6930   6934     1
   6931   6935     1
   6931   6933     1
   6931   6934     1
   6932   6938     1
   6933   6936     1
   6933   6937     1
   6934   6936     1
   6934   6937     1
   6936   6938     1
   6940   6947     1
   6940   6948     1
   6941   6946     1
   6941   6944     1
   6941   6945     1
   6942   6946     1
   6942   6944     1
   6942   6945     1
   6944   6970     1
   6944   6949     1
   6944   6947     1
   6944   6948     1
   6945   6970     1
   6945   6949     1
   6945   6947     1
   6945   6948     1
   6946   6951     1
   6946   6952     1
   6946   6961     1
   6946   6962     1
   6947   6950     1
   6947   6960     1
   6948   6950     1
   6948   6960     1
   6949   6954     1
   6949   6955     1
   6949   6964     1
   6949   6965     1
   6950   6961     1
   6950   6962     1
   6951   6960     1
   6951   6956     1
   6951   6954     1
   6951   6955     1
   6952   6960     1
   6952   6956     1
   6952   6954     1
   6952   6955     1
   6953   6959     1
   6954   6957     1
   6954   6958     1
   6955   6957     1
   6955   6958     1
   6957   6959     1
   6961   6966     1
   6961   6964     1
   6961   6965     1
   6962   6966     1
   6962   6964     1
   6962   6965     1
   6963   6969     1
   6964   6967     1
   6964   6968     1
   6965   6967     1
   6965   6968     1
   6967   6969     1
   6971   6978     1
   6971   6979     1
   6972   6977     1
   6972   6975     1
   6972   6976     1
   6973   6977     1
   6973   6975     1
   6973   6976     1
   6975   6980     1
   6975   6978     1
   6975   6979     1
   6975   7001     1
   6976   6980     1
   6976   6978     1
   6976   6979     1
   6976   7001     1
   6977   6982     1
   6977   6983     1
   6977   6992     1
   6977   6993     1
   6978   6981     1
   6978   6991     1
   6979   6981     1
   6979   6991     1
   6980   6985     1
   6980   6986     1
   6980   6995     1
   6980   6996     1
   6981   6992     1
   6981   6993     1
   6982   6987     1
   6982   6985     1
   6982   6986     1
   6982   6991     1
   6983   6987     1
   6983   6985     1
   6983   6986     1
   6983   6991     1
   6984   6990     1
   6985   6988     1
   6985   6989     1
   6986   6988     1
   6986   6989     1
   6988   6990     1
   6992   6997     1
   6992   6995     1
   6992   6996     1
   6993   6997     1
   6993   6995     1
   6993   6996     1
   6994   7000     1
   6995   6998     1
   6995   6999     1
   6996   6998     1
   6996   6999     1
   6998   7000     1
   7002   7009     1
   7002   7010     1
   7003   7008     1
   7003   7006     1
   7003   7007     1
   7004   7008     1
   7004   7006     1
   7004   7007     1
   7006   7032     1
   7006   7011     1
   7006   7009     1
   7006   7010     1
   7007   7032     1
   7007   7011     1
   7007   7009     1
   7007   7010     1
   7008   7013     1
   7008   7014     1
   7008   7023     1
   7008   7024     1
   7009   7012     1
   7009   7022     1
   7010   7012     1
   7010   7022     1
   7011   7016     1
   7011   7017     1
   7011   7026     1
   7011   7027     1
   7012   7023     1
   7012   7024     1
   7013   7022     1
   7013   7018     1
   7013   7016     1
   7013   7017     1
   7014   7022     1
   7014   7018     1
   7014   7016     1
   7014   7017     1
   7015   7021     1
   7016   7019     1
   7016   7020     1
   7017   7019     1
   7017   7020     1
   7019   7021     1
   7023   7028     1
   7023   7026     1
   7023   7027     1
   7024   7028     1
   7024   7026     1
   7024   7027     1
   7025   7031     1
   7026   7029     1
   7026   7030     1
   7027   7029     1
   7027   7030     1
   7029   7031     1
   7033   7040     1
   7033   7041     1
   7034   7039     1
   7034   7037     1
   7034   7038     1
   7035   7039     1
   7035   7037     1
   7035   7038     1
   7037   7042     1
   7037   7040     1
   7037   7041     1
   7037   7063     1
   7038   7042     1
   7038   7040     1
   7038   7041     1
   7038   7063     1
   7039   7044     1
   7039   7045     1
   7039   7054     1
   7039   7055     1
   7040   7043     1
   7040   7053     1
   7041   7043     1
   7041   7053     1
   7042   7047     1
   7042   7048     1
   7042   7057     1
   7042   7058     1
   7043   7054     1
   7043   7055     1
   7044   7049     1
   7044   7047     1
   7044   7048     1
   7044   7053     1
   7045   7049     1
   7045   7047     1
   7045   7048     1
   7045   7053     1
   7046   7052     1
   7047   7050     1
   7047   7051     1
   7048   7050     1
   7048   7051     1
   7050   7052     1
   7054   7059     1
   7054   7057     1
   7054   7058     1
   7055   7059     1
   7055   7057     1
   7055   7058     1
   7056   7062     1
   7057   7060     1
   7057   7061     1
   7058   7060     1
   7058   7061     1
   7060   7062     1
   7064   7071     1
   7064   7072     1
   7065   7070     1
   7065   7068     1
   7065   7069     1
   7066   7070     1
   7066   7068     1
   7066   7069     1
   7068   7094     1
   7068   7073     1
   7068   7071     1
   7068   7072     1
   7069   7094     1
   7069   7073     1
   7069   7071     1
   7069   7072     1
   7070   7075     1
   7070   7076     1
   7070   7085     1
   7070   7086     1
   7071   7074     1
   7071   7084     1
   7072   7074     1
   7072   7084     1
   7073   7078     1
   7073   7079     1
   7073   7088     1
   7073   7089     1
   7074   7085     1
   7074   7086     1
   7075   7084     1
   7075   7080     1
   7075   7078     1
   7075   7079     1
   7076   7084     1
   7076   7080     1
   7076   7078     1
   7076   7079     1
   7077   7083     1
   7078   7081     1
   7078   7082     1
   7079   7081     1
   7079   7082     1
   7081   7083     1
   7085   7090     1
   7085   7088     1
   7085   7089     1
   7086   7090     1
   7086   7088     1
   7086   7089     1
   7087   7093     1
   7088   7091     1
   7088   7092     1
   7089   7091     1
   7089   7092     1
   7091   7093     1
   7095   7102     1
   7095   7103     1
   7096   7101     1
   7096   7099     1
   7096   7100     1
   7097   7101     1
   7097   7099     1
   7097   7100     1
   7099   7104     1
   7099   7102     1
   7099   7103     1
   7099   7125     1
   7100   7104     1
   7100   7102     1
   7100   7103     1
   7100   7125     1
   7101   7106     1
   7101   7107     1
   7101   7116     1
   7101   7117     1
   7102   7105     1
   7102   7115     1
   7103   7105     1
   7103   7115     1
   7104   7109     1
   7104   7110     1
   7104   7119     1
   7104   7120     1
   7105   7116     1
   7105   7117     1
   7106   7111     1
   7106   7109     1
   7106   7110     1
   7106   7115     1
   7107   7111     1
   7107   7109     1
   7107   7110     1
   7107   7115     1
   7108   7114     1
   7109   7112     1
   7109   7113     1
   7110   7112     1
   7110   7113     1
   7112   7114     1
   7116   7121     1
   7116   7119     1
   7116   7120     1
   7117   7121     1
   7117   7119     1
   7117   7120     1
   7118   7124     1
   7119   7122     1
   7119   7123     1
   7120   7122     1
   7120   7123     1
   7122   7124     1
   7126   7133     1
   7126   7134     1
   7127   7132     1
   7127   7130     1
   7127   7131     1
   7128   7132     1
   7128   7130     1
   7128   7131     1
   7130   7156     1
   7130   7135     1
   7130   7133     1
   7130   7134     1
   7131   7156     1
   7131   7135     1
   7131   7133     1
   7131   7134     1
   7132   7137     1
   7132   7138     1
   7132   7147     1
   7132   7148     1
   7133   7136     1
   7133   7146     1
   7134   7136     1
   7134   7146     1
   7135   7140     1
   7135   7141     1
   7135   7150     1
   7135   7151     1
   7136   7147     1
   7136   7148     1
   7137   7146     1
   7137   7142     1
   7137   7140     1
   7137   7141     1
   7138   7146     1
   7138   7142     1
   7138   7140     1
   7138   7141     1
   7139   7145     1
   7140   7143     1
   7140   7144     1
   7141   7143     1
   7141   7144     1
   7143   7145     1
   7147   7152     1
   7147   7150     1
   7147   7151     1
   7148   7152     1
   7148   7150     1
   7148   7151     1
   7149   7155     1
   7150   7153     1
   7150   7154     1
   7151   7153     1
   7151   7154     1
   7153   7155     1
   7157   7164     1
   7157   7165     1
   7158   7163     1
   7158   7161     1
   7158   7162     1
   7159   7163     1
   7159   7161     1
   7159   7162     1
   7161   7166     1
   7161   7164     1
   7161   7165     1
   7161   7187     1
   7162   7166     1
   7162   7164     1
   7162   7165     1
   7162   7187     1
   7163   7168     1
   7163   7169     1
   7163   7178     1
   7163   7179     1
   7164   7167     1
   7164   7177     1
   7165   7167     1
   7165   7177     1
   7166   7171     1
   7166   7172     1
   7166   7181     1
   7166   7182     1
   7167   7178     1
   7167   7179     1
   7168   7173     1
   7168   7171     1
   7168   7172     1
   7168   7177     1
   7169   7173     1
   7169   7171     1
   7169   7172     1
   7169   7177     1
   7170   7176     1
   7171   7174     1
   7171   7175     1
   7172   7174     1
   7172   7175     1
   7174   7176     1
   7178   7183     1
   7178   7181     1
   7178   7182     1
   7179   7183     1
   7179   7181     1
   7179   7182     1
   7180   7186     1
   7181   7184     1
   7181   7185     1
   7182   7184     1
   7182   7185     1
   7184   7186     1
   7188   7195     1
   7188   7196     1
   7189   7194     1
   7189   7192     1
   7189   7193     1
   7190   7194     1
   7190   7192     1
   7190   7193     1
   7192   7218     1
   7192   7197     1
   7192   7195     1
   7192   7196     1
   7193   7218     1
   7193   7197     1
   7193   7195     1
   7193   7196     1
   7194   7199     1
   7194   7200     1
   7194   7209     1
   7194   7210     1
   7195   7198     1
   7195   7208     1
   7196   7198     1
   7196   7208     1
   7197   7202     1
   7197   7203     1
   7197   7212     1
   7197   7213     1
   7198   7209     1
   7198   7210     1
   7199   7208     1
   7199   7204     1
   7199   7202     1
   7199   7203     1
   7200   7208     1
   7200   7204     1
   7200   7202     1
   7200   7203     1
   7201   7207     1
   7202   7205     1
   7202   7206     1
   7203   7205     1
   7203   7206     1
   7205   7207     1
   7209   7214     1
   7209   7212     1
   7209   7213     1
   7210   7214     1
   7210   7212     1
   7210   7213     1
   7211   7217     1
   7212   7215     1
   7212   7216     1
   7213   7215     1
   7213   7216     1
   7215   7217     1
   7219   7226     1
   7219   7227     1
   7220   7225     1
   7220   7223     1
   7220   7224     1
   7221   7225     1
   7221   7223     1
   7221   7224     1
   7223   7228     1
   7223   7226     1
   7223   7227     1
   7223   7249     1
   7224   7228     1
   7224   7226     1
   7224   7227     1
   7224   7249     1
   7225   7230     1
   7225   7231     1
   7225   7240     1
   7225   7241     1
   7226   7229     1
   7226   7239     1
   7227   7229     1
   7227   7239     1
   7228   7233     1
   7228   7234     1
   7228   7243     1
   7228   7244     1
   7229   7240     1
   7229   7241     1
   7230   7235     1
   7230   7233     1
   7230   7234     1
   7230   7239     1
   7231   7235     1
   7231   7233     1
   7231   7234     1
   7231   7239     1
   7232   7238     1
   7233   7236     1
   7233   7237     1
   7234   7236     1
   7234   7237     1
   7236   7238     1
   7240   7245     1
   7240   7243     1
   7240   7244     1
   7241   7245     1
   7241   7243     1
   7241   7244     1
   7242   7248     1
   7243   7246     1
   7243   7247     1
   7244   7246     1
   7244   7247     1
   7246   7248     1
   7250   7257     1
   7250   7258     1
   7251   7256     1
   7251   7254     1
   7251   7255     1
   7252   7256     1
   7252   7254     1
   7252   7255     1
   7254   7280     1
   7254   7259     1
   7254   7257     1
   7254   7258     1
   7255   7280     1
   7255   7259     1
   7255   7257     1
   7255   7258     1
   7256   7261     1
   7256   7262     1
   7256   7271     1
   7256   7272     1
   7257   7260     1
   7257   7270     1
   7258   7260     1
   7258   7270     1
   7259   7264     1
   7259   7265     1
   7259   7274     1
   7259   7275     1
   7260   7271     1
   7260   7272     1
   7261   7270     1
   7261   7266     1
   7261   7264     1
   7261   7265     1
   7262   7270     1
   7262   7266     1
   7262   7264     1
   7262   7265     1
   7263   7269     1
   7264   7267     1
   7264   7268     1
   7265   7267     1
   7265   7268     1
   7267   7269     1
   7271   7276     1
   7271   7274     1
   7271   7275     1
   7272   7276     1
   7272   7274     1
   7272   7275     1
   7273   7279     1
   7274   7277     1
   7274   7278     1
   7275   7277     1
   7275   7278     1
   7277   7279     1
   7281   7288     1
   7281   7289     1
   7282   7287     1
   7282   7285     1
   7282   7286     1
   7283   7287     1
   7283   7285     1
   7283   7286     1
   7285   7290     1
   7285   7288     1
   7285   7289     1
   7285   7311     1
   7286   7290     1
   7286   7288     1
   7286   7289     1
   7286   7311     1
   7287   7292     1
   7287   7293     1
   7287   7302     1
   7287   7303     1
   7288   7291     1
   7288   7301     1
   7289   7291     1
   7289   7301     1
   7290   7295     1
   7290   7296     1
   7290   7305     1
   7290   7306     1
   7291   7302     1
   7291   7303     1
   7292   7297     1
   7292   7295     1
   7292   7296     1
   7292   7301     1
   7293   7297     1
   7293   7295     1
   7293   7296     1
   7293   7301     1
   7294   7300     1
   7295   7298     1
   7295   7299     1
   7296   7298     1
   7296   7299     1
   7298   7300     1
   7302   7307     1
   7302   7305     1
   7302   7306     1
   7303   7307     1
   7303   7305     1
   7303   7306     1
   7304   7310     1
   7305   7308     1
   7305   7309     1
   7306   7308     1
   7306   7309     1
   7308   7310     1
   7312   7319     1
   7312   7320     1
   7313   7318     1
   7313   7316     1
   7313   7317     1
   7314   7318     1
   7314   7316     1
   7314   7317     1
   7316   7342     1
   7316   7321     1
   7316   7319     1
   7316   7320     1
   7317   7342     1
   7317   7321     1
   7317   7319     1
   7317   7320     1
   7318   7323     1
   7318   7324     1
   7318   7333     1
   7318   7334     1
   7319   7322     1
   7319   7332     1
   7320   7322     1
   7320   7332     1
   7321   7326     1
   7321   7327     1
   7321   7336     1
   7321   7337     1
   7322   7333     1
   7322   7334     1
   7323   7332     1
   7323   7328     1
   7323   7326     1
   7323   7327     1
   7324   7332     1
   7324   7328     1
   7324   7326     1
   7324   7327     1
   7325   7331     1
   7326   7329     1
   7326   7330     1
   7327   7329     1
   7327   7330     1
   7329   7331     1
   7333   7338     1
   7333   7336     1
   7333   7337     1
   7334   7338     1
   7334   7336     1
   7334   7337     1
   7335   7341     1
   7336   7339     1
   7336   7340     1
   7337   7339     1
   7337   7340     1
   7339   7341     1
   7343   7350     1
   7343   7351     1
   7344   7349     1
   7344   7347     1
   7344   7348     1
   7345   7349     1
   7345   7347     1
   7345   7348     1
   7347   7352     1
   7347   7350     1
   7347   7351     1
   7347   7373     1
   7348   7352     1
   7348   7350     1
   7348   7351     1
   7348   7373     1
   7349   7354     1
   7349   7355     1
   7349   7364     1
   7349   7365     1
   7350   7353     1
   7350   7363     1
   7351   7353     1
   7351   7363     1
   7352   7357     1
   7352   7358     1
   7352   7367     1
   7352   7368     1
   7353   7364     1
   7353   7365     1
   7354   7359     1
   7354   7357     1
   7354   7358     1
   7354   7363     1
   7355   7359     1
   7355   7357     1
   7355   7358     1
   7355   7363     1
   7356   7362     1
   7357   7360     1
   7357   7361     1
   7358   7360     1
   7358   7361     1
   7360   7362     1
   7364   7369     1
   7364   7367     1
   7364   7368     1
   7365   7369     1
   7365   7367     1
   7365   7368     1
   7366   7372     1
   7367   7370     1
   7367   7371     1
   7368   7370     1
   7368   7371     1
   7370   7372     1
   7374   7381     1
   7374   7382     1
   7375   7380     1
   7375   7378     1
   7375   7379     1
   7376   7380     1
   7376   7378     1
   7376   7379     1
   7378   7404     1
   7378   7383     1
   7378   7381     1
   7378   7382     1
   7379   7404     1
   7379   7383     1
   7379   7381     1
   7379   7382     1
   7380   7385     1
   7380   7386     1
   7380   7395     1
   7380   7396     1
   7381   7384     1
   7381   7394     1
   7382   7384     1
   7382   7394     1
   7383   7388     1
   7383   7389     1
   7383   7398     1
   7383   7399     1
   7384   7395     1
   7384   7396     1
   7385   7394     1
   7385   7390     1
   7385   7388     1
   7385   7389     1
   7386   7394     1
   7386   7390     1
   7386   7388     1
   7386   7389     1
   7387   7393     1
   7388   7391     1
   7388   7392     1
   7389   7391     1
   7389   7392     1
   7391   7393     1
   7395   7400     1
   7395   7398     1
   7395   7399     1
   7396   7400     1
   7396   7398     1
   7396   7399     1
   7397   7403     1
   7398   7401     1
   7398   7402     1
   7399   7401     1
   7399   7402     1
   7401   7403     1
   7405   7412     1
   7405   7413     1
   7406   7411     1
   7406   7409     1
   7406   7410     1
   7407   7411     1
   7407   7409     1
   7407   7410     1
   7409   7414     1
   7409   7412     1
   7409   7413     1
   7409   7435     1
   7410   7414     1
   7410   7412     1
   7410   7413     1
   7410   7435     1
   7411   7416     1
   7411   7417     1
   7411   7426     1
   7411   7427     1
   7412   7415     1
   7412   7425     1
   7413   7415     1
   7413   7425     1
   7414   7419     1
   7414   7420     1
   7414   7429     1
   7414   7430     1
   7415   7426     1
   7415   7427     1
   7416   7421     1
   7416   7419     1
   7416   7420     1
   7416   7425     1
   7417   7421     1
   7417   7419     1
   7417   7420     1
   7417   7425     1
   7418   7424     1
   7419   7422     1
   7419   7423     1
   7420   7422     1
   7420   7423     1
   7422   7424     1
   7426   7431     1
   7426   7429     1
   7426   7430     1
   7427   7431     1
   7427   7429     1
   7427   7430     1
   7428   7434     1
   7429   7432     1
   7429   7433     1
   7430   7432     1
   7430   7433     1
   7432   7434     1
   7436   7443     1
   7436   7444     1
   7437   7442     1
   7437   7440     1
   7437   7441     1
   7438   7442     1
   7438   7440     1
   7438   7441     1
   7440   7466     1
   7440   7445     1
   7440   7443     1
   7440   7444     1
   7441   7466     1
   7441   7445     1
   7441   7443     1
   7441   7444     1
   7442   7447     1
   7442   7448     1
   7442   7457     1
   7442   7458     1
   7443   7446     1
   7443   7456     1
   7444   7446     1
   7444   7456     1
   7445   7450     1
   7445   7451     1
   7445   7460     1
   7445   7461     1
   7446   7457     1
   7446   7458     1
   7447   7456     1
   7447   7452     1
   7447   7450     1
   7447   7451     1
   7448   7456     1
   7448   7452     1
   7448   7450     1
   7448   7451     1
   7449   7455     1
   7450   7453     1
   7450   7454     1
   7451   7453     1
   7451   7454     1
   7453   7455     1
   7457   7462     1
   7457   7460     1
   7457   7461     1
   7458   7462     1
   7458   7460     1
   7458   7461     1
   7459   7465     1
   7460   7463     1
   7460   7464     1
   7461   7463     1
   7461   7464     1
   7463   7465     1
   7467   7474     1
   7467   7475     1
   7468   7473     1
   7468   7471     1
   7468   7472     1
   7469   7473     1
   7469   7471     1
   7469   7472     1
   7471   7476     1
   7471   7474     1
   7471   7475     1
   7471   7497     1
   7472   7476     1
   7472   7474     1
   7472   7475     1
   7472   7497     1
   7473   7478     1
   7473   7479     1
   7473   7488     1
   7473   7489     1
   7474   7477     1
   7474   7487     1
   7475   7477     1
   7475   7487     1
   7476   7481     1
   7476   7482     1
   7476   7491     1
   7476   7492     1
   7477   7488     1
   7477   7489     1
   7478   7483     1
   7478   7481     1
   7478   7482     1
   7478   7487     1
   7479   7483     1
   7479   7481     1
   7479   7482     1
   7479   7487     1
   7480   7486     1
   7481   7484     1
   7481   7485     1
   7482   7484     1
   7482   7485     1
   7484   7486     1
   7488   7493     1
   7488   7491     1
   7488   7492     1
   7489   7493     1
   7489   7491     1
   7489   7492     1
   7490   7496     1
   7491   7494     1
   7491   7495     1
   7492   7494     1
   7492   7495     1
   7494   7496     1
   7498   7505     1
   7498   7506     1
   7499   7504     1
   7499   7502     1
   7499   7503     1
   7500   7504     1
   7500   7502     1
   7500   7503     1
   7502   7528     1
   7502   7507     1
   7502   7505     1
   7502   7506     1
   7503   7528     1
   7503   7507     1
   7503   7505     1
   7503   7506     1
   7504   7509     1
   7504   7510     1
   7504   7519     1
   7504   7520     1
   7505   7508     1
   7505   7518     1
   7506   7508     1
   7506   7518     1
   7507   7512     1
   7507   7513     1
   7507   7522     1
   7507   7523     1
   7508   7519     1
   7508   7520     1
   7509   7518     1
   7509   7514     1
   7509   7512     1
   7509   7513     1
   7510   7518     1
   7510   7514     1
   7510   7512     1
   7510   7513     1
   7511   7517     1
   7512   7515     1
   7512   7516     1
   7513   7515     1
   7513   7516     1
   7515   7517     1
   7519   7524     1
   7519   7522     1
   7519   7523     1
   7520   7524     1
   7520   7522     1
   7520   7523     1
   7521   7527     1
   7522   7525     1
   7522   7526     1
   7523   7525     1
   7523   7526     1
   7525   7527     1
   7529   7536     1
   7529   7537     1
   7530   7535     1
   7530   7533     1
   7530   7534     1
   7531   7535     1
   7531   7533     1
   7531   7534     1
   7533   7538     1
   7533   7536     1
   7533   7537     1
   7533   7559     1
   7534   7538     1
   7534   7536     1
   7534   7537     1
   7534   7559     1
   7535   7540     1
   7535   7541     1
   7535   7550     1
   7535   7551     1
   7536   7539     1
   7536   7549     1
   7537   7539     1
   7537   7549     1
   7538   7543     1
   7538   7544     1
   7538   7553     1
   7538   7554     1
   7539   7550     1
   7539   7551     1
   7540   7545     1
   7540   7543     1
   7540   7544     1
   7540   7549     1
   7541   7545     1
   7541   7543     1
   7541   7544     1
   7541   7549     1
   7542   7548     1
   7543   7546     1
   7543   7547     1
   7544   7546     1
   7544   7547     1
   7546   7548     1
   7550   7555     1
   7550   7553     1
   7550   7554     1
   7551   7555     1
   7551   7553     1
   7551   7554     1
   7552   7558     1
   7553   7556     1
   7553   7557     1
   7554   7556     1
   7554   7557     1
   7556   7558     1
   7560   7567     1
   7560   7568     1
   7561   7566     1
   7561   7564     1
   7561   7565     1
   7562   7566     1
   7562   7564     1
   7562   7565     1
   7564   7590     1
   7564   7569     1
   7564   7567     1
   7564   7568     1
   7565   7590     1
   7565   7569     1
   7565   7567     1
   7565   7568     1
   7566   7571     1
   7566   7572     1
   7566   7581     1
   7566   7582     1
   7567   7570     1
   7567   7580     1
   7568   7570     1
   7568   7580     1
   7569   7574     1
   7569   7575     1
   7569   7584     1
   7569   7585     1
   7570   7581     1
   7570   7582     1
   7571   7580     1
   7571   7576     1
   7571   7574     1
   7571   7575     1
   7572   7580     1
   7572   7576     1
   7572   7574     1
   7572   7575     1
   7573   7579     1
   7574   7577     1
   7574   7578     1
   7575   7577     1
   7575   7578     1
   7577   7579     1
   7581   7586     1
   7581   7584     1
   7581   7585     1
   7582   7586     1
   7582   7584     1
   7582   7585     1
   7583   7589     1
   7584   7587     1
   7584   7588     1
   7585   7587     1
   7585   7588     1
   7587   7589     1
   7591   7598     1
   7591   7599     1
   7592   7597     1
   7592   7595     1
   7592   7596     1
   7593   7597     1
   7593   7595     1
   7593   7596     1
   7595   7600     1
   7595   7598     1
   7595   7599     1
   7595   7621     1
   7596   7600     1
   7596   7598     1
   7596   7599     1
   7596   7621     1
   7597   7602     1
   7597   7603     1
   7597   7612     1
   7597   7613     1
   7598   7601     1
   7598   7611     1
   7599   7601     1
   7599   7611     1
   7600   7605     1
   7600   7606     1
   7600   7615     1
   7600   7616     1
   7601   7612     1
   7601   7613     1
   7602   7607     1
   7602   7605     1
   7602   7606     1
   7602   7611     1
   7603   7607     1
   7603   7605     1
   7603   7606     1
   7603   7611     1
   7604   7610     1
   7605   7608     1
   7605   7609     1
   7606   7608     1
   7606   7609     1
   7608   7610     1
   7612   7617     1
   7612   7615     1
   7612   7616     1
   7613   7617     1
   7613   7615     1
   7613   7616     1
   7614   7620     1
   7615   7618     1
   7615   7619     1
   7616   7618     1
   7616   7619     1
   7618   7620     1

[ angles ]
;    ai     aj     ak funct         c0         c1         c2         c3
      1      2      8     1   107.9700462 569.024000
      1      5     11     1   107.9700462 569.024000
      2      1      5     1   112.4800480 524.673600
      2      8     14     1   111.5100476 526.347200
      5     11     17     1   111.5100476 526.347200
      8     14     20     1   111.0400475 552.288000
     11     17     21     1   111.0400475 552.288000
     14     20     28     1   112.3500484 533.878400
     14     20     31     1   112.3500484 533.878400
     17     21     22     1   112.3500484 533.878400
     17     21     25     1   112.3500484 533.878400
     20     28     40     1   111.0400475 552.288000
     20     31     43     1   111.0400475 552.288000
     21     22     34     1   111.0400475 552.288000
     21     25     37     1   111.0400475 552.288000
     22     21     25     1   112.3500484 533.878400
     22     34     55     1   111.5100476 526.347200
     25     37     52     1   111.5100476 526.347200
     28     20     31     1   112.3500484 533.878400
     28     40     49     1   111.5100476 526.347200
     31     43     46     1   111.5100476 526.347200
     34     55    173     1   107.9700462 569.024000
     37     52    144     1   107.9700462 569.024000
     40     49    115     1   107.9700462 569.024000
     43     46     86     1   107.9700462 569.024000
     46     86     77     1   112.4800480 524.673600
     49    115    106     1   112.4800480 524.673600
     52    144    135     1   112.4800480 524.673600
     55    173    164     1   112.4800480 524.673600
     58     59     71     1   111.0400475 552.288000
     58     62     74     1   111.0400475 552.288000
     58     65     68     1   111.0400475 552.288000
     59     58     62     1   112.3500484 533.878400
     59     58     65     1   112.3500484 533.878400
     59     71     83     1   111.5100476 526.347200
     62     58     65     1   112.3500484 533.878400
     62     74     80     1   111.5100476 526.347200
     65     68     77     1   111.5100476 526.347200
     68     77     86     1   107.9700462 569.024000
     71     83    231     1   107.9700462 569.024000
     74     80    202     1   107.9700462 569.024000
     80    202    193     1   112.4800480 524.673600
     83    231    222     1   112.4800480 524.673600
     87     88    100     1   111.0400475 552.288000
     87     91    103     1   111.0400475 552.288000
     87     94     97     1   111.0400475 552.288000
     88     87     91     1   112.3500484 533.878400
     88     87     94     1   112.3500484 533.878400
     88    100    112     1   111.5100476 526.347200
     91     87     94     1   112.3500484 533.878400
     91    103    109     1   111.5100476 526.347200
     94     97    106     1   111.5100476 526.347200
     97    106    115     1   107.9700462 569.024000
    100    112    289     1   107.9700462 569.024000
    103    109    260     1   107.9700462 569.024000
    109    260    251     1   112.4800480 524.673600
    112    289    280     1   112.4800480 524.673600
    116    117    129     1   111.0400475 552.288000
    116    120    132     1   111.0400475 552.288000
    116    123    126     1   111.0400475 552.288000
    117    116    120     1   112.3500484 533.878400
    117    116    123     1   112.3500484 533.878400
    117    129    141     1   111.5100476 526.347200
    120    116    123     1   112.3500484 533.878400
    120    132    138     1   111.5100476 526.347200
    123    126    135     1   111.5100476 526.347200
    126    135    144     1   107.9700462 569.024000
    129    141    347     1   107.9700462 569.024000
    132    138    318     1   107.9700462 569.024000
    138    318    309     1   112.4800480 524.673600
    141    347    338     1   112.4800480 524.673600
    145    146    158     1   111.0400475 552.288000
    145    149    161     1   111.0400475 552.288000
    145    152    155     1   111.0400475 552.288000
    146    145    149     1   112.3500484 533.878400
    146    145    152     1   112.3500484 533.878400
    146    158    170     1   111.5100476 526.347200
    149    145    152     1   112.3500484 533.878400
    149    161    167     1   111.5100476 526.347200
    152    155    164     1   111.5100476 526.347200
    155    164    173     1   107.9700462 569.024000
    158    170    405     1   107.9700462 569.024000
    161    167    376     1   107.9700462 569.024000
    167    376    367     1   112.4800480 524.673600
    170    405    396     1   112.4800480 524.673600
    174    175    187     1   111.0400475 552.288000
    174    178    190     1   111.0400475 552.288000
    174    181    184     1   111.0400475 552.288000
    175    174    178     1   112.3500484 533.878400
    175    174    181     1   112.3500484 533.878400
    175    187    199     1   111.5100476 526.347200
    178    174    181     1   112.3500484 533.878400
    178    190    196     1   111.5100476 526.347200
    181    184    193     1   111.5100476 526.347200
    184    193    202     1   107.9700462 569.024000
    187    199    463     1   107.9700462 569.024000
    190    196    434     1   107.9700462 569.024000
    196    434    425     1   112.4800480 524.673600
    199    463    454     1   112.4800480 524.673600
    203    204    216     1   111.0400475 552.288000
    203    207    219     1   111.0400475 552.288000
    203    210    213     1   111.0400475 552.288000
    204    203    207     1   112.3500484 533.878400
    204    203    210     1   112.3500484 533.878400
    204    216    228     1   111.5100476 526.347200
    207    203    210     1   112.3500484 533.878400
    207    219    225     1   111.5100476 526.347200
    210    213    222     1   111.5100476 526.347200
    213    222    231     1   107.9700462 569.024000
    216    228    521     1   107.9700462 569.024000
    219    225    492     1   107.9700462 569.024000
    225    492    483     1   112.4800480 524.673600
    228    521    512     1   112.4800480 524.673600
    232    233    245     1   111.0400475 552.288000
    232    236    248     1   111.0400475 552.288000
    232    239    242     1   111.0400475 552.288000
    233    232    236     1   112.3500484 533.878400
    233    232    239     1   112.3500484 533.878400
    233    245    257     1   111.5100476 526.347200
    236    232    239     1   112.3500484 533.878400
    236    248    254     1   111.5100476 526.347200
    239    242    251     1   111.5100476 526.347200
    242    251    260     1   107.9700462 569.024000
    245    257    579     1   107.9700462 569.024000
    248    254    550     1   107.9700462 569.024000
    254    550    541     1   112.4800480 524.673600
    257    579    570     1   112.4800480 524.673600
    261    262    274     1   111.0400475 552.288000
    261    265    277     1   111.0400475 552.288000
    261    268    271     1   111.0400475 552.288000
    262    261    265     1   112.3500484 533.878400
    262    261    268     1   112.3500484 533.878400
    262    274    286     1   111.5100476 526.347200
    265    261    268     1   112.3500484 533.878400
    265    277    283     1   111.5100476 526.347200
    268    271    280     1   111.5100476 526.347200
    271    280    289     1   107.9700462 569.024000
    274    286    637     1   107.9700462 569.024000
    277    283    608     1   107.9700462 569.024000
    283    608    599     1   112.4800480 524.673600
    286    637    628     1   112.4800480 524.673600
    290    291    303     1   111.0400475 552.288000
    290    294    306     1   111.0400475 552.288000
    290    297    300     1   111.0400475 552.288000
    291    290    294     1   112.3500484 533.878400
    291    290    297     1   112.3500484 533.878400
    291    303    315     1   111.5100476 526.347200
    294    290    297     1   112.3500484 533.878400
    294    306    312     1   111.5100476 526.347200
    297    300    309     1   111.5100476 526.347200
    300    309    318     1   107.9700462 569.024000
    303    315    695     1   107.9700462 569.024000
    306    312    666     1   107.9700462 569.024000
    312    666    657     1   112.4800480 524.673600
    315    695    686     1   112.4800480 524.673600
    319    320    332     1   111.0400475 552.288000
    319    323    335     1   111.0400475 552.288000
    319    326    329     1   111.0400475 552.288000
    320    319    323     1   112.3500484 533.878400
    320    319    326     1   112.3500484 533.878400
    320    332    344     1   111.5100476 526.347200
    323    319    326     1   112.3500484 533.878400
    323    335    341     1   111.5100476 526.347200
    326    329    338     1   111.5100476 526.347200
    329    338    347     1   107.9700462 569.024000
    332    344    753     1   107.9700462 569.024000
    335    341    724     1   107.9700462 569.024000
    341    724    715     1   112.4800480 524.673600
    344    753    744     1   112.4800480 524.673600
    348    349    361     1   111.0400475 552.288000
    348    352    364     1   111.0400475 552.288000
    348    355    358     1   111.0400475 552.288000
    349    348    352     1   112.3500484 533.878400
    349    348    355     1   112.3500484 533.878400
    349    361    373     1   111.5100476 526.347200
    352    348    355     1   112.3500484 533.878400
    352    364    370     1   111.5100476 526.347200
    355    358    367     1   111.5100476 526.347200
    358    367    376     1   107.9700462 569.024000
    361    373    811     1   107.9700462 569.024000
    364    370    782     1   107.9700462 569.024000
    370    782    773     1   112.4800480 524.673600
    373    811    802     1   112.4800480 524.673600
    377    378    390     1   111.0400475 552.288000
    377    381    393     1   111.0400475 552.288000
    377    384    387     1   111.0400475 552.288000
    378    377    381     1   112.3500484 533.878400
    378    377    384     1   112.3500484 533.878400
    378    390    402     1   111.5100476 526.347200
    381    377    384     1   112.3500484 533.878400
    381    393    399     1   111.5100476 526.347200
    384    387    396     1   111.5100476 526.347200
    387    396    405     1   107.9700462 569.024000
    390    402    869     1   107.9700462 569.024000
    393    399    840     1   107.9700462 569.024000
    399    840    831     1   112.4800480 524.673600
    402    869    860     1   112.4800480 524.673600
    406    407    419     1   111.0400475 552.288000
    406    410    422     1   111.0400475 552.288000
    406    413    416     1   111.0400475 552.288000
    407    406    410     1   112.3500484 533.878400
    407    406    413     1   112.3500484 533.878400
    407    419    431     1   111.5100476 526.347200
    410    406    413     1   112.3500484 533.878400
    410    422    428     1   111.5100476 526.347200
    413    416    425     1   111.5100476 526.347200
    416    425    434     1   107.9700462 569.024000
    419    431    927     1   107.9700462 569.024000
    422    428    898     1   107.9700462 569.024000
    428    898    889     1   112.4800480 524.673600
    431    927    918     1   112.4800480 524.673600
    435    436    448     1   111.0400475 552.288000
    435    439    451     1   111.0400475 552.288000
    435    442    445     1   111.0400475 552.288000
    436    435    439     1   112.3500484 533.878400
    436    435    442     1   112.3500484 533.878400
    436    448    460     1   111.5100476 526.347200
    439    435    442     1   112.3500484 533.878400
    439    451    457     1   111.5100476 526.347200
    442    445    454     1   111.5100476 526.347200
    445    454    463     1   107.9700462 569.024000
    448    460    985     1   107.9700462 569.024000
    451    457    956     1   107.9700462 569.024000
    457    956    947     1   112.4800480 524.673600
    460    985    976     1   112.4800480 524.673600
    464    465    477     1   111.0400475 552.288000
    464    468    480     1   111.0400475 552.288000
    464    471    474     1   111.0400475 552.288000
    465    464    468     1   112.3500484 533.878400
    465    464    471     1   112.3500484 533.878400
    465    477    489     1   111.5100476 526.347200
    468    464    471     1   112.3500484 533.878400
    468    480    486     1   111.5100476 526.347200
    471    474    483     1   111.5100476 526.347200
    474    483    492     1   107.9700462 569.024000
    477    489   1043     1   107.9700462 569.024000
    480    486   1014     1   107.9700462 569.024000
    486   1014   1005     1   112.4800480 524.673600
    489   1043   1034     1   112.4800480 524.673600
    493    494    506     1   111.0400475 552.288000
    493    497    509     1   111.0400475 552.288000
    493    500    503     1   111.0400475 552.288000
    494    493    497     1   112.3500484 533.878400
    494    493    500     1   112.3500484 533.878400
    494    506    518     1   111.5100476 526.347200
    497    493    500     1   112.3500484 533.878400
    497    509    515     1   111.5100476 526.347200
    500    503    512     1   111.5100476 526.347200
    503    512    521     1   107.9700462 569.024000
    506    518   1101     1   107.9700462 569.024000
    509    515   1072     1   107.9700462 569.024000
    515   1072   1063     1   112.4800480 524.673600
    518   1101   1092     1   112.4800480 524.673600
    522    523    535     1   111.0400475 552.288000
    522    526    538     1   111.0400475 552.288000
    522    529    532     1   111.0400475 552.288000
    523    522    526     1   112.3500484 533.878400
    523    522    529     1   112.3500484 533.878400
    523    535    547     1   111.5100476 526.347200
    526    522    529     1   112.3500484 533.878400
    526    538    544     1   111.5100476 526.347200
    529    532    541     1   111.5100476 526.347200
    532    541    550     1   107.9700462 569.024000
    535    547   1159     1   107.9700462 569.024000
    538    544   1130     1   107.9700462 569.024000
    544   1130   1121     1   112.4800480 524.673600
    547   1159   1150     1   112.4800480 524.673600
    551    552    564     1   111.0400475 552.288000
    551    555    567     1   111.0400475 552.288000
    551    558    561     1   111.0400475 552.288000
    552    551    555     1   112.3500484 533.878400
    552    551    558     1   112.3500484 533.878400
    552    564    576     1   111.5100476 526.347200
    555    551    558     1   112.3500484 533.878400
    555    567    573     1   111.5100476 526.347200
    558    561    570     1   111.5100476 526.347200
    561    570    579     1   107.9700462 569.024000
    564    576   1217     1   107.9700462 569.024000
    567    573   1188     1   107.9700462 569.024000
    573   1188   1179     1   112.4800480 524.673600
    576   1217   1208     1   112.4800480 524.673600
    580    581    593     1   111.0400475 552.288000
    580    584    596     1   111.0400475 552.288000
    580    587    590     1   111.0400475 552.288000
    581    580    584     1   112.3500484 533.878400
    581    580    587     1   112.3500484 533.878400
    581    593    605     1   111.5100476 526.347200
    584    580    587     1   112.3500484 533.878400
    584    596    602     1   111.5100476 526.347200
    587    590    599     1   111.5100476 526.347200
    590    599    608     1   107.9700462 569.024000
    593    605   1275     1   107.9700462 569.024000
    596    602   1246     1   107.9700462 569.024000
    602   1246   1237     1   112.4800480 524.673600
    605   1275   1266     1   112.4800480 524.673600
    609    610    622     1   111.0400475 552.288000
    609    613    625     1   111.0400475 552.288000
    609    616    619     1   111.0400475 552.288000
    610    609    613     1   112.3500484 533.878400
    610    609    616     1   112.3500484 533.878400
    610    622    634     1   111.5100476 526.347200
    613    609    616     1   112.3500484 533.878400
    613    625    631     1   111.5100476 526.347200
    616    619    628     1   111.5100476 526.347200
    619    628    637     1   107.9700462 569.024000
    622    634   1333     1   107.9700462 569.024000
    625    631   1304     1   107.9700462 569.024000
    631   1304   1295     1   112.4800480 524.673600
    634   1333   1324     1   112.4800480 524.673600
    638    639    651     1   111.0400475 552.288000
    638    642    654     1   111.0400475 552.288000
    638    645    648     1   111.0400475 552.288000
    639    638    642     1   112.3500484 533.878400
    639    638    645     1   112.3500484 533.878400
    639    651    663     1   111.5100476 526.347200
    642    638    645     1   112.3500484 533.878400
    642    654    660     1   111.5100476 526.347200
    645    648    657     1   111.5100476 526.347200
    648    657    666     1   107.9700462 569.024000
    651    663   1391     1   107.9700462 569.024000
    654    660   1362     1   107.9700462 569.024000
    660   1362   1353     1   112.4800480 524.673600
    663   1391   1382     1   112.4800480 524.673600
    667    668    680     1   111.0400475 552.288000
    667    671    683     1   111.0400475 552.288000
    667    674    677     1   111.0400475 552.288000
    668    667    671     1   112.3500484 533.878400
    668    667    674     1   112.3500484 533.878400
    668    680    692     1   111.5100476 526.347200
    671    667    674     1   112.3500484 533.878400
    671    683    689     1   111.5100476 526.347200
    674    677    686     1   111.5100476 526.347200
    677    686    695     1   107.9700462 569.024000
    680    692   1449     1   107.9700462 569.024000
    683    689   1420     1   107.9700462 569.024000
    689   1420   1411     1   112.4800480 524.673600
    692   1449   1440     1   112.4800480 524.673600
    696    697    709     1   111.0400475 552.288000
    696    700    712     1   111.0400475 552.288000
    696    703    706     1   111.0400475 552.288000
    697    696    700     1   112.3500484 533.878400
    697    696    703     1   112.3500484 533.878400
    697    709    721     1   111.5100476 526.347200
    700    696    703     1   112.3500484 533.878400
    700    712    718     1   111.5100476 526.347200
    703    706    715     1   111.5100476 526.347200
    706    715    724     1   107.9700462 569.024000
    709    721   1507     1   107.9700462 569.024000
    712    718   1478     1   107.9700462 569.024000
    718   1478   1469     1   112.4800480 524.673600
    721   1507   1498     1   112.4800480 524.673600
    725    726    738     1   111.0400475 552.288000
    725    729    741     1   111.0400475 552.288000
    725    732    735     1   111.0400475 552.288000
    726    725    729     1   112.3500484 533.878400
    726    725    732     1   112.3500484 533.878400
    726    738    750     1   111.5100476 526.347200
    729    725    732     1   112.3500484 533.878400
    729    741    747     1   111.5100476 526.347200
    732    735    744     1   111.5100476 526.347200
    735    744    753     1   107.9700462 569.024000
    738    750   1565     1   107.9700462 569.024000
    741    747   1536     1   107.9700462 569.024000
    747   1536   1527     1   112.4800480 524.673600
    750   1565   1556     1   112.4800480 524.673600
    754    755    767     1   111.0400475 552.288000
    754    758    770     1   111.0400475 552.288000
    754    761    764     1   111.0400475 552.288000
    755    754    758     1   112.3500484 533.878400
    755    754    761     1   112.3500484 533.878400
    755    767    779     1   111.5100476 526.347200
    758    754    761     1   112.3500484 533.878400
    758    770    776     1   111.5100476 526.347200
    761    764    773     1   111.5100476 526.347200
    764    773    782     1   107.9700462 569.024000
    767    779   1623     1   107.9700462 569.024000
    770    776   1594     1   107.9700462 569.024000
    776   1594   1585     1   112.4800480 524.673600
    779   1623   1614     1   112.4800480 524.673600
    783    784    796     1   111.0400475 552.288000
    783    787    799     1   111.0400475 552.288000
    783    790    793     1   111.0400475 552.288000
    784    783    787     1   112.3500484 533.878400
    784    783    790     1   112.3500484 533.878400
    784    796    808     1   111.5100476 526.347200
    787    783    790     1   112.3500484 533.878400
    787    799    805     1   111.5100476 526.347200
    790    793    802     1   111.5100476 526.347200
    793    802    811     1   107.9700462 569.024000
    796    808   1681     1   107.9700462 569.024000
    799    805   1652     1   107.9700462 569.024000
    805   1652   1643     1   112.4800480 524.673600
    808   1681   1672     1   112.4800480 524.673600
    812    813    825     1   111.0400475 552.288000
    812    816    828     1   111.0400475 552.288000
    812    819    822     1   111.0400475 552.288000
    813    812    816     1   112.3500484 533.878400
    813    812    819     1   112.3500484 533.878400
    813    825    837     1   111.5100476 526.347200
    816    812    819     1   112.3500484 533.878400
    816    828    834     1   111.5100476 526.347200
    819    822    831     1   111.5100476 526.347200
    822    831    840     1   107.9700462 569.024000
    825    837   1739     1   107.9700462 569.024000
    828    834   1710     1   107.9700462 569.024000
    834   1710   1701     1   112.4800480 524.673600
    837   1739   1730     1   112.4800480 524.673600
    841    842    854     1   111.0400475 552.288000
    841    845    857     1   111.0400475 552.288000
    841    848    851     1   111.0400475 552.288000
    842    841    845     1   112.3500484 533.878400
    842    841    848     1   112.3500484 533.878400
    842    854    866     1   111.5100476 526.347200
    845    841    848     1   112.3500484 533.878400
    845    857    863     1   111.5100476 526.347200
    848    851    860     1   111.5100476 526.347200
    851    860    869     1   107.9700462 569.024000
    854    866   1797     1   107.9700462 569.024000
    857    863   1768     1   107.9700462 569.024000
    863   1768   1759     1   112.4800480 524.673600
    866   1797   1788     1   112.4800480 524.673600
    870    871    883     1   111.0400475 552.288000
    870    874    886     1   111.0400475 552.288000
    870    877    880     1   111.0400475 552.288000
    871    870    874     1   112.3500484 533.878400
    871    870    877     1   112.3500484 533.878400
    871    883    895     1   111.5100476 526.347200
    874    870    877     1   112.3500484 533.878400
    874    886    892     1   111.5100476 526.347200
    877    880    889     1   111.5100476 526.347200
    880    889    898     1   107.9700462 569.024000
    883    895   1855     1   107.9700462 569.024000
    886    892   1826     1   107.9700462 569.024000
    892   1826   1817     1   112.4800480 524.673600
    895   1855   1846     1   112.4800480 524.673600
    899    900    912     1   111.0400475 552.288000
    899    903    915     1   111.0400475 552.288000
    899    906    909     1   111.0400475 552.288000
    900    899    903     1   112.3500484 533.878400
    900    899    906     1   112.3500484 533.878400
    900    912    924     1   111.5100476 526.347200
    903    899    906     1   112.3500484 533.878400
    903    915    921     1   111.5100476 526.347200
    906    909    918     1   111.5100476 526.347200
    909    918    927     1   107.9700462 569.024000
    912    924   1913     1   107.9700462 569.024000
    915    921   1884     1   107.9700462 569.024000
    921   1884   1875     1   112.4800480 524.673600
    924   1913   1904     1   112.4800480 524.673600
    928    929    941     1   111.0400475 552.288000
    928    932    944     1   111.0400475 552.288000
    928    935    938     1   111.0400475 552.288000
    929    928    932     1   112.3500484 533.878400
    929    928    935     1   112.3500484 533.878400
    929    941    953     1   111.5100476 526.347200
    932    928    935     1   112.3500484 533.878400
    932    944    950     1   111.5100476 526.347200
    935    938    947     1   111.5100476 526.347200
    938    947    956     1   107.9700462 569.024000
    941    953   1971     1   107.9700462 569.024000
    944    950   1942     1   107.9700462 569.024000
    950   1942   1933     1   112.4800480 524.673600
    953   1971   1962     1   112.4800480 524.673600
    957    958    970     1   111.0400475 552.288000
    957    961    973     1   111.0400475 552.288000
    957    964    967     1   111.0400475 552.288000
    958    957    961     1   112.3500484 533.878400
    958    957    964     1   112.3500484 533.878400
    958    970    982     1   111.5100476 526.347200
    961    957    964     1   112.3500484 533.878400
    961    973    979     1   111.5100476 526.347200
    964    967    976     1   111.5100476 526.347200
    967    976    985     1   107.9700462 569.024000
    970    982   2029     1   107.9700462 569.024000
    973    979   2000     1   107.9700462 569.024000
    979   2000   1991     1   112.4800480 524.673600
    982   2029   2020     1   112.4800480 524.673600
    986    987    999     1   111.0400475 552.288000
    986    990   1002     1   111.0400475 552.288000
    986    993    996     1   111.0400475 552.288000
    987    986    990     1   112.3500484 533.878400
    987    986    993     1   112.3500484 533.878400
    987    999   1011     1   111.5100476 526.347200
    990    986    993     1   112.3500484 533.878400
    990   1002   1008     1   111.5100476 526.347200
    993    996   1005     1   111.5100476 526.347200
    996   1005   1014     1   107.9700462 569.024000
    999   1011   2087     1   107.9700462 569.024000
   1002   1008   2058     1   107.9700462 569.024000
   1008   2058   2049     1   112.4800480 524.673600
   1011   2087   2078     1   112.4800480 524.673600
   1015   1016   1028     1   111.0400475 552.288000
   1015   1019   1031     1   111.0400475 552.288000
   1015   1022   1025     1   111.0400475 552.288000
   1016   1015   1019     1   112.3500484 533.878400
   1016   1015   1022     1   112.3500484 533.878400
   1016   1028   1040     1   111.5100476 526.347200
   1019   1015   1022     1   112.3500484 533.878400
   1019   1031   1037     1   111.5100476 526.347200
   1022   1025   1034     1   111.5100476 526.347200
   1025   1034   1043     1   107.9700462 569.024000
   1028   1040   2145     1   107.9700462 569.024000
   1031   1037   2116     1   107.9700462 569.024000
   1037   2116   2107     1   112.4800480 524.673600
   1040   2145   2136     1   112.4800480 524.673600
   1044   1045   1057     1   111.0400475 552.288000
   1044   1048   1060     1   111.0400475 552.288000
   1044   1051   1054     1   111.0400475 552.288000
   1045   1044   1048     1   112.3500484 533.878400
   1045   1044   1051     1   112.3500484 533.878400
   1045   1057   1069     1   111.5100476 526.347200
   1048   1044   1051     1   112.3500484 533.878400
   1048   1060   1066     1   111.5100476 526.347200
   1051   1054   1063     1   111.5100476 526.347200
   1054   1063   1072     1   107.9700462 569.024000
   1057   1069   2203     1   107.9700462 569.024000
   1060   1066   2174     1   107.9700462 569.024000
   1066   2174   2165     1   112.4800480 524.673600
   1069   2203   2194     1   112.4800480 524.673600
   1073   1074   1086     1   111.0400475 552.288000
   1073   1077   1089     1   111.0400475 552.288000
   1073   1080   1083     1   111.0400475 552.288000
   1074   1073   1077     1   112.3500484 533.878400
   1074   1073   1080     1   112.3500484 533.878400
   1074   1086   1098     1   111.5100476 526.347200
   1077   1073   1080     1   112.3500484 533.878400
   1077   1089   1095     1   111.5100476 526.347200
   1080   1083   1092     1   111.5100476 526.347200
   1083   1092   1101     1   107.9700462 569.024000
   1086   1098   2261     1   107.9700462 569.024000
   1089   1095   2232     1   107.9700462 569.024000
   1095   2232   2223     1   112.4800480 524.673600
   1098   2261   2252     1   112.4800480 524.673600
   1102   1103   1115     1   111.0400475 552.288000
   1102   1106   1118     1   111.0400475 552.288000
   1102   1109   1112     1   111.0400475 552.288000
   1103   1102   1106     1   112.3500484 533.878400
   1103   1102   1109     1   112.3500484 533.878400
   1103   1115   1127     1   111.5100476 526.347200
   1106   1102   1109     1   112.3500484 533.878400
   1106   1118   1124     1   111.5100476 526.347200
   1109   1112   1121     1   111.5100476 526.347200
   1112   1121   1130     1   107.9700462 569.024000
   1115   1127   2319     1   107.9700462 569.024000
   1118   1124   2290     1   107.9700462 569.024000
   1124   2290   2281     1   112.4800480 524.673600
   1127   2319   2310     1   112.4800480 524.673600
   1131   1132   1144     1   111.0400475 552.288000
   1131   1135   1147     1   111.0400475 552.288000
   1131   1138   1141     1   111.0400475 552.288000
   1132   1131   1135     1   112.3500484 533.878400
   1132   1131   1138     1   112.3500484 533.878400
   1132   1144   1156     1   111.5100476 526.347200
   1135   1131   1138     1   112.3500484 533.878400
   1135   1147   1153     1   111.5100476 526.347200
   1138   1141   1150     1   111.5100476 526.347200
   1141   1150   1159     1   107.9700462 569.024000
   1144   1156   2377     1   107.9700462 569.024000
   1147   1153   2348     1   107.9700462 569.024000
   1153   2348   2339     1   112.4800480 524.673600
   1156   2377   2368     1   112.4800480 524.673600
   1160   1161   1173     1   111.0400475 552.288000
   1160   1164   1176     1   111.0400475 552.288000
   1160   1167   1170     1   111.0400475 552.288000
   1161   1160   1164     1   112.3500484 533.878400
   1161   1160   1167     1   112.3500484 533.878400
   1161   1173   1185     1   111.5100476 526.347200
   1164   1160   1167     1   112.3500484 533.878400
   1164   1176   1182     1   111.5100476 526.347200
   1167   1170   1179     1   111.5100476 526.347200
   1170   1179   1188     1   107.9700462 569.024000
   1173   1185   2435     1   107.9700462 569.024000
   1176   1182   2406     1   107.9700462 569.024000
   1182   2406   2397     1   112.4800480 524.673600
   1185   2435   2426     1   112.4800480 524.673600
   1189   1190   1202     1   111.0400475 552.288000
   1189   1193   1205     1   111.0400475 552.288000
   1189   1196   1199     1   111.0400475 552.288000
   1190   1189   1193     1   112.3500484 533.878400
   1190   1189   1196     1   112.3500484 533.878400
   1190   1202   1214     1   111.5100476 526.347200
   1193   1189   1196     1   112.3500484 533.878400
   1193   1205   1211     1   111.5100476 526.347200
   1196   1199   1208     1   111.5100476 526.347200
   1199   1208   1217     1   107.9700462 569.024000
   1202   1214   2493     1   107.9700462 569.024000
   1205   1211   2464     1   107.9700462 569.024000
   1211   2464   2455     1   112.4800480 524.673600
   1214   2493   2484     1   112.4800480 524.673600
   1218   1219   1231     1   111.0400475 552.288000
   1218   1222   1234     1   111.0400475 552.288000
   1218   1225   1228     1   111.0400475 552.288000
   1219   1218   1222     1   112.3500484 533.878400
   1219   1218   1225     1   112.3500484 533.878400
   1219   1231   1243     1   111.5100476 526.347200
   1222   1218   1225     1   112.3500484 533.878400
   1222   1234   1240     1   111.5100476 526.347200
   1225   1228   1237     1   111.5100476 526.347200
   1228   1237   1246     1   107.9700462 569.024000
   1231   1243   2551     1   107.9700462 569.024000
   1234   1240   2522     1   107.9700462 569.024000
   1240   2522   2513     1   112.4800480 524.673600
   1243   2551   2542     1   112.4800480 524.673600
   1247   1248   1260     1   111.0400475 552.288000
   1247   1251   1263     1   111.0400475 552.288000
   1247   1254   1257     1   111.0400475 552.288000
   1248   1247   1251     1   112.3500484 533.878400
   1248   1247   1254     1   112.3500484 533.878400
   1248   1260   1272     1   111.5100476 526.347200
   1251   1247   1254     1   112.3500484 533.878400
   1251   1263   1269     1   111.5100476 526.347200
   1254   1257   1266     1   111.5100476 526.347200
   1257   1266   1275     1   107.9700462 569.024000
   1260   1272   2609     1   107.9700462 569.024000
   1263   1269   2580     1   107.9700462 569.024000
   1269   2580   2571     1   112.4800480 524.673600
   1272   2609   2600     1   112.4800480 524.673600
   1276   1277   1289     1   111.0400475 552.288000
   1276   1280   1292     1   111.0400475 552.288000
   1276   1283   1286     1   111.0400475 552.288000
   1277   1276   1280     1   112.3500484 533.878400
   1277   1276   1283     1   112.3500484 533.878400
   1277   1289   1301     1   111.5100476 526.347200
   1280   1276   1283     1   112.3500484 533.878400
   1280   1292   1298     1   111.5100476 526.347200
   1283   1286   1295     1   111.5100476 526.347200
   1286   1295   1304     1   107.9700462 569.024000
   1289   1301   2667     1   107.9700462 569.024000
   1292   1298   2638     1   107.9700462 569.024000
   1298   2638   2629     1   112.4800480 524.673600
   1301   2667   2658     1   112.4800480 524.673600
   1305   1306   1318     1   111.0400475 552.288000
   1305   1309   1321     1   111.0400475 552.288000
   1305   1312   1315     1   111.0400475 552.288000
   1306   1305   1309     1   112.3500484 533.878400
   1306   1305   1312     1   112.3500484 533.878400
   1306   1318   1330     1   111.5100476 526.347200
   1309   1305   1312     1   112.3500484 533.878400
   1309   1321   1327     1   111.5100476 526.347200
   1312   1315   1324     1   111.5100476 526.347200
   1315   1324   1333     1   107.9700462 569.024000
   1318   1330   2725     1   107.9700462 569.024000
   1321   1327   2696     1   107.9700462 569.024000
   1327   2696   2687     1   112.4800480 524.673600
   1330   2725   2716     1   112.4800480 524.673600
   1334   1335   1347     1   111.0400475 552.288000
   1334   1338   1350     1   111.0400475 552.288000
   1334   1341   1344     1   111.0400475 552.288000
   1335   1334   1338     1   112.3500484 533.878400
   1335   1334   1341     1   112.3500484 533.878400
   1335   1347   1359     1   111.5100476 526.347200
   1338   1334   1341     1   112.3500484 533.878400
   1338   1350   1356     1   111.5100476 526.347200
   1341   1344   1353     1   111.5100476 526.347200
   1344   1353   1362     1   107.9700462 569.024000
   1347   1359   2783     1   107.9700462 569.024000
   1350   1356   2754     1   107.9700462 569.024000
   1356   2754   2745     1   112.4800480 524.673600
   1359   2783   2774     1   112.4800480 524.673600
   1363   1364   1376     1   111.0400475 552.288000
   1363   1367   1379     1   111.0400475 552.288000
   1363   1370   1373     1   111.0400475 552.288000
   1364   1363   1367     1   112.3500484 533.878400
   1364   1363   1370     1   112.3500484 533.878400
   1364   1376   1388     1   111.5100476 526.347200
   1367   1363   1370     1   112.3500484 533.878400
   1367   1379   1385     1   111.5100476 526.347200
   1370   1373   1382     1   111.5100476 526.347200
   1373   1382   1391     1   107.9700462 569.024000
   1376   1388   2841     1   107.9700462 569.024000
   1379   1385   2812     1   107.9700462 569.024000
   1385   2812   2803     1   112.4800480 524.673600
   1388   2841   2832     1   112.4800480 524.673600
   1392   1393   1405     1   111.0400475 552.288000
   1392   1396   1408     1   111.0400475 552.288000
   1392   1399   1402     1   111.0400475 552.288000
   1393   1392   1396     1   112.3500484 533.878400
   1393   1392   1399     1   112.3500484 533.878400
   1393   1405   1417     1   111.5100476 526.347200
   1396   1392   1399     1   112.3500484 533.878400
   1396   1408   1414     1   111.5100476 526.347200
   1399   1402   1411     1   111.5100476 526.347200
   1402   1411   1420     1   107.9700462 569.024000
   1405   1417   2899     1   107.9700462 569.024000
   1408   1414   2870     1   107.9700462 569.024000
   1414   2870   2861     1   112.4800480 524.673600
   1417   2899   2890     1   112.4800480 524.673600
   1421   1422   1434     1   111.0400475 552.288000
   1421   1425   1437     1   111.0400475 552.288000
   1421   1428   1431     1   111.0400475 552.288000
   1422   1421   1425     1   112.3500484 533.878400
   1422   1421   1428     1   112.3500484 533.878400
   1422   1434   1446     1   111.5100476 526.347200
   1425   1421   1428     1   112.3500484 533.878400
   1425   1437   1443     1   111.5100476 526.347200
   1428   1431   1440     1   111.5100476 526.347200
   1431   1440   1449     1   107.9700462 569.024000
   1434   1446   2957     1   107.9700462 569.024000
   1437   1443   2928     1   107.9700462 569.024000
   1443   2928   2919     1   112.4800480 524.673600
   1446   2957   2948     1   112.4800480 524.673600
   1450   1451   1463     1   111.0400475 552.288000
   1450   1454   1466     1   111.0400475 552.288000
   1450   1457   1460     1   111.0400475 552.288000
   1451   1450   1454     1   112.3500484 533.878400
   1451   1450   1457     1   112.3500484 533.878400
   1451   1463   1475     1   111.5100476 526.347200
   1454   1450   1457     1   112.3500484 533.878400
   1454   1466   1472     1   111.5100476 526.347200
   1457   1460   1469     1   111.5100476 526.347200
   1460   1469   1478     1   107.9700462 569.024000
   1463   1475   3015     1   107.9700462 569.024000
   1466   1472   2986     1   107.9700462 569.024000
   1472   2986   2977     1   112.4800480 524.673600
   1475   3015   3006     1   112.4800480 524.673600
   1479   1480   1492     1   111.0400475 552.288000
   1479   1483   1495     1   111.0400475 552.288000
   1479   1486   1489     1   111.0400475 552.288000
   1480   1479   1483     1   112.3500484 533.878400
   1480   1479   1486     1   112.3500484 533.878400
   1480   1492   1504     1   111.5100476 526.347200
   1483   1479   1486     1   112.3500484 533.878400
   1483   1495   1501     1   111.5100476 526.347200
   1486   1489   1498     1   111.5100476 526.347200
   1489   1498   1507     1   107.9700462 569.024000
   1492   1504   3073     1   107.9700462 569.024000
   1495   1501   3044     1   107.9700462 569.024000
   1501   3044   3035     1   112.4800480 524.673600
   1504   3073   3064     1   112.4800480 524.673600
   1508   1509   1521     1   111.0400475 552.288000
   1508   1512   1524     1   111.0400475 552.288000
   1508   1515   1518     1   111.0400475 552.288000
   1509   1508   1512     1   112.3500484 533.878400
   1509   1508   1515     1   112.3500484 533.878400
   1509   1521   1533     1   111.5100476 526.347200
   1512   1508   1515     1   112.3500484 533.878400
   1512   1524   1530     1   111.5100476 526.347200
   1515   1518   1527     1   111.5100476 526.347200
   1518   1527   1536     1   107.9700462 569.024000
   1521   1533   3131     1   107.9700462 569.024000
   1524   1530   3102     1   107.9700462 569.024000
   1530   3102   3093     1   112.4800480 524.673600
   1533   3131   3122     1   112.4800480 524.673600
   1537   1538   1550     1   111.0400475 552.288000
   1537   1541   1553     1   111.0400475 552.288000
   1537   1544   1547     1   111.0400475 552.288000
   1538   1537   1541     1   112.3500484 533.878400
   1538   1537   1544     1   112.3500484 533.878400
   1538   1550   1562     1   111.5100476 526.347200
   1541   1537   1544     1   112.3500484 533.878400
   1541   1553   1559     1   111.5100476 526.347200
   1544   1547   1556     1   111.5100476 526.347200
   1547   1556   1565     1   107.9700462 569.024000
   1550   1562   3189     1   107.9700462 569.024000
   1553   1559   3160     1   107.9700462 569.024000
   1559   3160   3151     1   112.4800480 524.673600
   1562   3189   3180     1   112.4800480 524.673600
   1566   1567   1579     1   111.0400475 552.288000
   1566   1570   1582     1   111.0400475 552.288000
   1566   1573   1576     1   111.0400475 552.288000
   1567   1566   1570     1   112.3500484 533.878400
   1567   1566   1573     1   112.3500484 533.878400
   1567   1579   1591     1   111.5100476 526.347200
   1570   1566   1573     1   112.3500484 533.878400
   1570   1582   1588     1   111.5100476 526.347200
   1573   1576   1585     1   111.5100476 526.347200
   1576   1585   1594     1   107.9700462 569.024000
   1579   1591   3247     1   107.9700462 569.024000
   1582   1588   3218     1   107.9700462 569.024000
   1588   3218   3209     1   112.4800480 524.673600
   1591   3247   3238     1   112.4800480 524.673600
   1595   1596   1608     1   111.0400475 552.288000
   1595   1599   1611     1   111.0400475 552.288000
   1595   1602   1605     1   111.0400475 552.288000
   1596   1595   1599     1   112.3500484 533.878400
   1596   1595   1602     1   112.3500484 533.878400
   1596   1608   1620     1   111.5100476 526.347200
   1599   1595   1602     1   112.3500484 533.878400
   1599   1611   1617     1   111.5100476 526.347200
   1602   1605   1614     1   111.5100476 526.347200
   1605   1614   1623     1   107.9700462 569.024000
   1608   1620   3305     1   107.9700462 569.024000
   1611   1617   3276     1   107.9700462 569.024000
   1617   3276   3267     1   112.4800480 524.673600
   1620   3305   3296     1   112.4800480 524.673600
   1624   1625   1637     1   111.0400475 552.288000
   1624   1628   1640     1   111.0400475 552.288000
   1624   1631   1634     1   111.0400475 552.288000
   1625   1624   1628     1   112.3500484 533.878400
   1625   1624   1631     1   112.3500484 533.878400
   1625   1637   1649     1   111.5100476 526.347200
   1628   1624   1631     1   112.3500484 533.878400
   1628   1640   1646     1   111.5100476 526.347200
   1631   1634   1643     1   111.5100476 526.347200
   1634   1643   1652     1   107.9700462 569.024000
   1637   1649   3363     1   107.9700462 569.024000
   1640   1646   3334     1   107.9700462 569.024000
   1646   3334   3325     1   112.4800480 524.673600
   1649   3363   3354     1   112.4800480 524.673600
   1653   1654   1666     1   111.0400475 552.288000
   1653   1657   1669     1   111.0400475 552.288000
   1653   1660   1663     1   111.0400475 552.288000
   1654   1653   1657     1   112.3500484 533.878400
   1654   1653   1660     1   112.3500484 533.878400
   1654   1666   1678     1   111.5100476 526.347200
   1657   1653   1660     1   112.3500484 533.878400
   1657   1669   1675     1   111.5100476 526.347200
   1660   1663   1672     1   111.5100476 526.347200
   1663   1672   1681     1   107.9700462 569.024000
   1666   1678   3421     1   107.9700462 569.024000
   1669   1675   3392     1   107.9700462 569.024000
   1675   3392   3383     1   112.4800480 524.673600
   1678   3421   3412     1   112.4800480 524.673600
   1682   1683   1695     1   111.0400475 552.288000
   1682   1686   1698     1   111.0400475 552.288000
   1682   1689   1692     1   111.0400475 552.288000
   1683   1682   1686     1   112.3500484 533.878400
   1683   1682   1689     1   112.3500484 533.878400
   1683   1695   1707     1   111.5100476 526.347200
   1686   1682   1689     1   112.3500484 533.878400
   1686   1698   1704     1   111.5100476 526.347200
   1689   1692   1701     1   111.5100476 526.347200
   1692   1701   1710     1   107.9700462 569.024000
   1695   1707   3479     1   107.9700462 569.024000
   1698   1704   3450     1   107.9700462 569.024000
   1704   3450   3441     1   112.4800480 524.673600
   1707   3479   3470     1   112.4800480 524.673600
   1711   1712   1724     1   111.0400475 552.288000
   1711   1715   1727     1   111.0400475 552.288000
   1711   1718   1721     1   111.0400475 552.288000
   1712   1711   1715     1   112.3500484 533.878400
   1712   1711   1718     1   112.3500484 533.878400
   1712   1724   1736     1   111.5100476 526.347200
   1715   1711   1718     1   112.3500484 533.878400
   1715   1727   1733     1   111.5100476 526.347200
   1718   1721   1730     1   111.5100476 526.347200
   1721   1730   1739     1   107.9700462 569.024000
   1724   1736   3537     1   107.9700462 569.024000
   1727   1733   3508     1   107.9700462 569.024000
   1733   3508   3499     1   112.4800480 524.673600
   1736   3537   3528     1   112.4800480 524.673600
   1740   1741   1753     1   111.0400475 552.288000
   1740   1744   1756     1   111.0400475 552.288000
   1740   1747   1750     1   111.0400475 552.288000
   1741   1740   1744     1   112.3500484 533.878400
   1741   1740   1747     1   112.3500484 533.878400
   1741   1753   1765     1   111.5100476 526.347200
   1744   1740   1747     1   112.3500484 533.878400
   1744   1756   1762     1   111.5100476 526.347200
   1747   1750   1759     1   111.5100476 526.347200
   1750   1759   1768     1   107.9700462 569.024000
   1753   1765   3595     1   107.9700462 569.024000
   1756   1762   3566     1   107.9700462 569.024000
   1762   3566   3557     1   112.4800480 524.673600
   1765   3595   3586     1   112.4800480 524.673600
   1769   1770   1782     1   111.0400475 552.288000
   1769   1773   1785     1   111.0400475 552.288000
   1769   1776   1779     1   111.0400475 552.288000
   1770   1769   1773     1   112.3500484 533.878400
   1770   1769   1776     1   112.3500484 533.878400
   1770   1782   1794     1   111.5100476 526.347200
   1773   1769   1776     1   112.3500484 533.878400
   1773   1785   1791     1   111.5100476 526.347200
   1776   1779   1788     1   111.5100476 526.347200
   1779   1788   1797     1   107.9700462 569.024000
   1782   1794   3653     1   107.9700462 569.024000
   1785   1791   3624     1   107.9700462 569.024000
   1791   3624   3615     1   112.4800480 524.673600
   1794   3653   3644     1   112.4800480 524.673600
   1798   1799   1811     1   111.0400475 552.288000
   1798   1802   1814     1   111.0400475 552.288000
   1798   1805   1808     1   111.0400475 552.288000
   1799   1798   1802     1   112.3500484 533.878400
   1799   1798   1805     1   112.3500484 533.878400
   1799   1811   1823     1   111.5100476 526.347200
   1802   1798   1805     1   112.3500484 533.878400
   1802   1814   1820     1   111.5100476 526.347200
   1805   1808   1817     1   111.5100476 526.347200
   1808   1817   1826     1   107.9700462 569.024000
   1811   1823   3715     1   107.9700462 569.024000
   1814   1820   3684     1   107.9700462 569.024000
   1820   3684   3654     1   112.4800480 524.673600
   1823   3715   3685     1   112.4800480 524.673600
   1827   1828   1840     1   111.0400475 552.288000
   1827   1831   1843     1   111.0400475 552.288000
   1827   1834   1837     1   111.0400475 552.288000
   1828   1827   1831     1   112.3500484 533.878400
   1828   1827   1834     1   112.3500484 533.878400
   1828   1840   1852     1   111.5100476 526.347200
   1831   1827   1834     1   112.3500484 533.878400
   1831   1843   1849     1   111.5100476 526.347200
   1834   1837   1846     1   111.5100476 526.347200
   1837   1846   1855     1   107.9700462 569.024000
   1840   1852   3777     1   107.9700462 569.024000
   1843   1849   3746     1   107.9700462 569.024000
   1849   3746   3716     1   112.4800480 524.673600
   1852   3777   3747     1   112.4800480 524.673600
   1856   1857   1869     1   111.0400475 552.288000
   1856   1860   1872     1   111.0400475 552.288000
   1856   1863   1866     1   111.0400475 552.288000
   1857   1856   1860     1   112.3500484 533.878400
   1857   1856   1863     1   112.3500484 533.878400
   1857   1869   1881     1   111.5100476 526.347200
   1860   1856   1863     1   112.3500484 533.878400
   1860   1872   1878     1   111.5100476 526.347200
   1863   1866   1875     1   111.5100476 526.347200
   1866   1875   1884     1   107.9700462 569.024000
   1869   1881   3839     1   107.9700462 569.024000
   1872   1878   3808     1   107.9700462 569.024000
   1878   3808   3778     1   112.4800480 524.673600
   1881   3839   3809     1   112.4800480 524.673600
   1885   1886   1898     1   111.0400475 552.288000
   1885   1889   1901     1   111.0400475 552.288000
   1885   1892   1895     1   111.0400475 552.288000
   1886   1885   1889     1   112.3500484 533.878400
   1886   1885   1892     1   112.3500484 533.878400
   1886   1898   1910     1   111.5100476 526.347200
   1889   1885   1892     1   112.3500484 533.878400
   1889   1901   1907     1   111.5100476 526.347200
   1892   1895   1904     1   111.5100476 526.347200
   1895   1904   1913     1   107.9700462 569.024000
   1898   1910   3901     1   107.9700462 569.024000
   1901   1907   3870     1   107.9700462 569.024000
   1907   3870   3840     1   112.4800480 524.673600
   1910   3901   3871     1   112.4800480 524.673600
   1914   1915   1927     1   111.0400475 552.288000
   1914   1918   1930     1   111.0400475 552.288000
   1914   1921   1924     1   111.0400475 552.288000
   1915   1914   1918     1   112.3500484 533.878400
   1915   1914   1921     1   112.3500484 533.878400
   1915   1927   1939     1   111.5100476 526.347200
   1918   1914   1921     1   112.3500484 533.878400
   1918   1930   1936     1   111.5100476 526.347200
   1921   1924   1933     1   111.5100476 526.347200
   1924   1933   1942     1   107.9700462 569.024000
   1927   1939   3963     1   107.9700462 569.024000
   1930   1936   3932     1   107.9700462 569.024000
   1936   3932   3902     1   112.4800480 524.673600
   1939   3963   3933     1   112.4800480 524.673600
   1943   1944   1956     1   111.0400475 552.288000
   1943   1947   1959     1   111.0400475 552.288000
   1943   1950   1953     1   111.0400475 552.288000
   1944   1943   1947     1   112.3500484 533.878400
   1944   1943   1950     1   112.3500484 533.878400
   1944   1956   1968     1   111.5100476 526.347200
   1947   1943   1950     1   112.3500484 533.878400
   1947   1959   1965     1   111.5100476 526.347200
   1950   1953   1962     1   111.5100476 526.347200
   1953   1962   1971     1   107.9700462 569.024000
   1956   1968   4025     1   107.9700462 569.024000
   1959   1965   3994     1   107.9700462 569.024000
   1965   3994   3964     1   112.4800480 524.673600
   1968   4025   3995     1   112.4800480 524.673600
   1972   1973   1985     1   111.0400475 552.288000
   1972   1976   1988     1   111.0400475 552.288000
   1972   1979   1982     1   111.0400475 552.288000
   1973   1972   1976     1   112.3500484 533.878400
   1973   1972   1979     1   112.3500484 533.878400
   1973   1985   1997     1   111.5100476 526.347200
   1976   1972   1979     1   112.3500484 533.878400
   1976   1988   1994     1   111.5100476 526.347200
   1979   1982   1991     1   111.5100476 526.347200
   1982   1991   2000     1   107.9700462 569.024000
   1985   1997   4087     1   107.9700462 569.024000
   1988   1994   4056     1   107.9700462 569.024000
   1994   4056   4026     1   112.4800480 524.673600
   1997   4087   4057     1   112.4800480 524.673600
   2001   2002   2014     1   111.0400475 552.288000
   2001   2005   2017     1   111.0400475 552.288000
   2001   2008   2011     1   111.0400475 552.288000
   2002   2001   2005     1   112.3500484 533.878400
   2002   2001   2008     1   112.3500484 533.878400
   2002   2014   2026     1   111.5100476 526.347200
   2005   2001   2008     1   112.3500484 533.878400
   2005   2017   2023     1   111.5100476 526.347200
   2008   2011   2020     1   111.5100476 526.347200
   2011   2020   2029     1   107.9700462 569.024000
   2014   2026   4149     1   107.9700462 569.024000
   2017   2023   4118     1   107.9700462 569.024000
   2023   4118   4088     1   112.4800480 524.673600
   2026   4149   4119     1   112.4800480 524.673600
   2030   2031   2043     1   111.0400475 552.288000
   2030   2034   2046     1   111.0400475 552.288000
   2030   2037   2040     1   111.0400475 552.288000
   2031   2030   2034     1   112.3500484 533.878400
   2031   2030   2037     1   112.3500484 533.878400
   2031   2043   2055     1   111.5100476 526.347200
   2034   2030   2037     1   112.3500484 533.878400
   2034   2046   2052     1   111.5100476 526.347200
   2037   2040   2049     1   111.5100476 526.347200
   2040   2049   2058     1   107.9700462 569.024000
   2043   2055   4211     1   107.9700462 569.024000
   2046   2052   4180     1   107.9700462 569.024000
   2052   4180   4150     1   112.4800480 524.673600
   2055   4211   4181     1   112.4800480 524.673600
   2059   2060   2072     1   111.0400475 552.288000
   2059   2063   2075     1   111.0400475 552.288000
   2059   2066   2069     1   111.0400475 552.288000
   2060   2059   2063     1   112.3500484 533.878400
   2060   2059   2066     1   112.3500484 533.878400
   2060   2072   2084     1   111.5100476 526.347200
   2063   2059   2066     1   112.3500484 533.878400
   2063   2075   2081     1   111.5100476 526.347200
   2066   2069   2078     1   111.5100476 526.347200
   2069   2078   2087     1   107.9700462 569.024000
   2072   2084   4273     1   107.9700462 569.024000
   2075   2081   4242     1   107.9700462 569.024000
   2081   4242   4212     1   112.4800480 524.673600
   2084   4273   4243     1   112.4800480 524.673600
   2088   2089   2101     1   111.0400475 552.288000
   2088   2092   2104     1   111.0400475 552.288000
   2088   2095   2098     1   111.0400475 552.288000
   2089   2088   2092     1   112.3500484 533.878400
   2089   2088   2095     1   112.3500484 533.878400
   2089   2101   2113     1   111.5100476 526.347200
   2092   2088   2095     1   112.3500484 533.878400
   2092   2104   2110     1   111.5100476 526.347200
   2095   2098   2107     1   111.5100476 526.347200
   2098   2107   2116     1   107.9700462 569.024000
   2101   2113   4335     1   107.9700462 569.024000
   2104   2110   4304     1   107.9700462 569.024000
   2110   4304   4274     1   112.4800480 524.673600
   2113   4335   4305     1   112.4800480 524.673600
   2117   2118   2130     1   111.0400475 552.288000
   2117   2121   2133     1   111.0400475 552.288000
   2117   2124   2127     1   111.0400475 552.288000
   2118   2117   2121     1   112.3500484 533.878400
   2118   2117   2124     1   112.3500484 533.878400
   2118   2130   2142     1   111.5100476 526.347200
   2121   2117   2124     1   112.3500484 533.878400
   2121   2133   2139     1   111.5100476 526.347200
   2124   2127   2136     1   111.5100476 526.347200
   2127   2136   2145     1   107.9700462 569.024000
   2130   2142   4397     1   107.9700462 569.024000
   2133   2139   4366     1   107.9700462 569.024000
   2139   4366   4336     1   112.4800480 524.673600
   2142   4397   4367     1   112.4800480 524.673600
   2146   2147   2159     1   111.0400475 552.288000
   2146   2150   2162     1   111.0400475 552.288000
   2146   2153   2156     1   111.0400475 552.288000
   2147   2146   2150     1   112.3500484 533.878400
   2147   2146   2153     1   112.3500484 533.878400
   2147   2159   2171     1   111.5100476 526.347200
   2150   2146   2153     1   112.3500484 533.878400
   2150   2162   2168     1   111.5100476 526.347200
   2153   2156   2165     1   111.5100476 526.347200
   2156   2165   2174     1   107.9700462 569.024000
   2159   2171   4459     1   107.9700462 569.024000
   2162   2168   4428     1   107.9700462 569.024000
   2168   4428   4398     1   112.4800480 524.673600
   2171   4459   4429     1   112.4800480 524.673600
   2175   2176   2188     1   111.0400475 552.288000
   2175   2179   2191     1   111.0400475 552.288000
   2175   2182   2185     1   111.0400475 552.288000
   2176   2175   2179     1   112.3500484 533.878400
   2176   2175   2182     1   112.3500484 533.878400
   2176   2188   2200     1   111.5100476 526.347200
   2179   2175   2182     1   112.3500484 533.878400
   2179   2191   2197     1   111.5100476 526.347200
   2182   2185   2194     1   111.5100476 526.347200
   2185   2194   2203     1   107.9700462 569.024000
   2188   2200   4521     1   107.9700462 569.024000
   2191   2197   4490     1   107.9700462 569.024000
   2197   4490   4460     1   112.4800480 524.673600
   2200   4521   4491     1   112.4800480 524.673600
   2204   2205   2217     1   111.0400475 552.288000
   2204   2208   2220     1   111.0400475 552.288000
   2204   2211   2214     1   111.0400475 552.288000
   2205   2204   2208     1   112.3500484 533.878400
   2205   2204   2211     1   112.3500484 533.878400
   2205   2217   2229     1   111.5100476 526.347200
   2208   2204   2211     1   112.3500484 533.878400
   2208   2220   2226     1   111.5100476 526.347200
   2211   2214   2223     1   111.5100476 526.347200
   2214   2223   2232     1   107.9700462 569.024000
   2217   2229   4583     1   107.9700462 569.024000
   2220   2226   4552     1   107.9700462 569.024000
   2226   4552   4522     1   112.4800480 524.673600
   2229   4583   4553     1   112.4800480 524.673600
   2233   2234   2246     1   111.0400475 552.288000
   2233   2237   2249     1   111.0400475 552.288000
   2233   2240   2243     1   111.0400475 552.288000
   2234   2233   2237     1   112.3500484 533.878400
   2234   2233   2240     1   112.3500484 533.878400
   2234   2246   2258     1   111.5100476 526.347200
   2237   2233   2240     1   112.3500484 533.878400
   2237   2249   2255     1   111.5100476 526.347200
   2240   2243   2252     1   111.5100476 526.347200
   2243   2252   2261     1   107.9700462 569.024000
   2246   2258   4645     1   107.9700462 569.024000
   2249   2255   4614     1   107.9700462 569.024000
   2255   4614   4584     1   112.4800480 524.673600
   2258   4645   4615     1   112.4800480 524.673600
   2262   2263   2275     1   111.0400475 552.288000
   2262   2266   2278     1   111.0400475 552.288000
   2262   2269   2272     1   111.0400475 552.288000
   2263   2262   2266     1   112.3500484 533.878400
   2263   2262   2269     1   112.3500484 533.878400
   2263   2275   2287     1   111.5100476 526.347200
   2266   2262   2269     1   112.3500484 533.878400
   2266   2278   2284     1   111.5100476 526.347200
   2269   2272   2281     1   111.5100476 526.347200
   2272   2281   2290     1   107.9700462 569.024000
   2275   2287   4707     1   107.9700462 569.024000
   2278   2284   4676     1   107.9700462 569.024000
   2284   4676   4646     1   112.4800480 524.673600
   2287   4707   4677     1   112.4800480 524.673600
   2291   2292   2304     1   111.0400475 552.288000
   2291   2295   2307     1   111.0400475 552.288000
   2291   2298   2301     1   111.0400475 552.288000
   2292   2291   2295     1   112.3500484 533.878400
   2292   2291   2298     1   112.3500484 533.878400
   2292   2304   2316     1   111.5100476 526.347200
   2295   2291   2298     1   112.3500484 533.878400
   2295   2307   2313     1   111.5100476 526.347200
   2298   2301   2310     1   111.5100476 526.347200
   2301   2310   2319     1   107.9700462 569.024000
   2304   2316   4769     1   107.9700462 569.024000
   2307   2313   4738     1   107.9700462 569.024000
   2313   4738   4708     1   112.4800480 524.673600
   2316   4769   4739     1   112.4800480 524.673600
   2320   2321   2333     1   111.0400475 552.288000
   2320   2324   2336     1   111.0400475 552.288000
   2320   2327   2330     1   111.0400475 552.288000
   2321   2320   2324     1   112.3500484 533.878400
   2321   2320   2327     1   112.3500484 533.878400
   2321   2333   2345     1   111.5100476 526.347200
   2324   2320   2327     1   112.3500484 533.878400
   2324   2336   2342     1   111.5100476 526.347200
   2327   2330   2339     1   111.5100476 526.347200
   2330   2339   2348     1   107.9700462 569.024000
   2333   2345   4831     1   107.9700462 569.024000
   2336   2342   4800     1   107.9700462 569.024000
   2342   4800   4770     1   112.4800480 524.673600
   2345   4831   4801     1   112.4800480 524.673600
   2349   2350   2362     1   111.0400475 552.288000
   2349   2353   2365     1   111.0400475 552.288000
   2349   2356   2359     1   111.0400475 552.288000
   2350   2349   2353     1   112.3500484 533.878400
   2350   2349   2356     1   112.3500484 533.878400
   2350   2362   2374     1   111.5100476 526.347200
   2353   2349   2356     1   112.3500484 533.878400
   2353   2365   2371     1   111.5100476 526.347200
   2356   2359   2368     1   111.5100476 526.347200
   2359   2368   2377     1   107.9700462 569.024000
   2362   2374   4893     1   107.9700462 569.024000
   2365   2371   4862     1   107.9700462 569.024000
   2371   4862   4832     1   112.4800480 524.673600
   2374   4893   4863     1   112.4800480 524.673600
   2378   2379   2391     1   111.0400475 552.288000
   2378   2382   2394     1   111.0400475 552.288000
   2378   2385   2388     1   111.0400475 552.288000
   2379   2378   2382     1   112.3500484 533.878400
   2379   2378   2385     1   112.3500484 533.878400
   2379   2391   2403     1   111.5100476 526.347200
   2382   2378   2385     1   112.3500484 533.878400
   2382   2394   2400     1   111.5100476 526.347200
   2385   2388   2397     1   111.5100476 526.347200
   2388   2397   2406     1   107.9700462 569.024000
   2391   2403   4955     1   107.9700462 569.024000
   2394   2400   4924     1   107.9700462 569.024000
   2400   4924   4894     1   112.4800480 524.673600
   2403   4955   4925     1   112.4800480 524.673600
   2407   2408   2420     1   111.0400475 552.288000
   2407   2411   2423     1   111.0400475 552.288000
   2407   2414   2417     1   111.0400475 552.288000
   2408   2407   2411     1   112.3500484 533.878400
   2408   2407   2414     1   112.3500484 533.878400
   2408   2420   2432     1   111.5100476 526.347200
   2411   2407   2414     1   112.3500484 533.878400
   2411   2423   2429     1   111.5100476 526.347200
   2414   2417   2426     1   111.5100476 526.347200
   2417   2426   2435     1   107.9700462 569.024000
   2420   2432   5017     1   107.9700462 569.024000
   2423   2429   4986     1   107.9700462 569.024000
   2429   4986   4956     1   112.4800480 524.673600
   2432   5017   4987     1   112.4800480 524.673600
   2436   2437   2449     1   111.0400475 552.288000
   2436   2440   2452     1   111.0400475 552.288000
   2436   2443   2446     1   111.0400475 552.288000
   2437   2436   2440     1   112.3500484 533.878400
   2437   2436   2443     1   112.3500484 533.878400
   2437   2449   2461     1   111.5100476 526.347200
   2440   2436   2443     1   112.3500484 533.878400
   2440   2452   2458     1   111.5100476 526.347200
   2443   2446   2455     1   111.5100476 526.347200
   2446   2455   2464     1   107.9700462 569.024000
   2449   2461   5079     1   107.9700462 569.024000
   2452   2458   5048     1   107.9700462 569.024000
   2458   5048   5018     1   112.4800480 524.673600
   2461   5079   5049     1   112.4800480 524.673600
   2465   2466   2478     1   111.0400475 552.288000
   2465   2469   2481     1   111.0400475 552.288000
   2465   2472   2475     1   111.0400475 552.288000
   2466   2465   2469     1   112.3500484 533.878400
   2466   2465   2472     1   112.3500484 533.878400
   2466   2478   2490     1   111.5100476 526.347200
   2469   2465   2472     1   112.3500484 533.878400
   2469   2481   2487     1   111.5100476 526.347200
   2472   2475   2484     1   111.5100476 526.347200
   2475   2484   2493     1   107.9700462 569.024000
   2478   2490   5141     1   107.9700462 569.024000
   2481   2487   5110     1   107.9700462 569.024000
   2487   5110   5080     1   112.4800480 524.673600
   2490   5141   5111     1   112.4800480 524.673600
   2494   2495   2507     1   111.0400475 552.288000
   2494   2498   2510     1   111.0400475 552.288000
   2494   2501   2504     1   111.0400475 552.288000
   2495   2494   2498     1   112.3500484 533.878400
   2495   2494   2501     1   112.3500484 533.878400
   2495   2507   2519     1   111.5100476 526.347200
   2498   2494   2501     1   112.3500484 533.878400
   2498   2510   2516     1   111.5100476 526.347200
   2501   2504   2513     1   111.5100476 526.347200
   2504   2513   2522     1   107.9700462 569.024000
   2507   2519   5203     1   107.9700462 569.024000
   2510   2516   5172     1   107.9700462 569.024000
   2516   5172   5142     1   112.4800480 524.673600
   2519   5203   5173     1   112.4800480 524.673600
   2523   2524   2536     1   111.0400475 552.288000
   2523   2527   2539     1   111.0400475 552.288000
   2523   2530   2533     1   111.0400475 552.288000
   2524   2523   2527     1   112.3500484 533.878400
   2524   2523   2530     1   112.3500484 533.878400
   2524   2536   2548     1   111.5100476 526.347200
   2527   2523   2530     1   112.3500484 533.878400
   2527   2539   2545     1   111.5100476 526.347200
   2530   2533   2542     1   111.5100476 526.347200
   2533   2542   2551     1   107.9700462 569.024000
   2536   2548   5265     1   107.9700462 569.024000
   2539   2545   5234     1   107.9700462 569.024000
   2545   5234   5204     1   112.4800480 524.673600
   2548   5265   5235     1   112.4800480 524.673600
   2552   2553   2565     1   111.0400475 552.288000
   2552   2556   2568     1   111.0400475 552.288000
   2552   2559   2562     1   111.0400475 552.288000
   2553   2552   2556     1   112.3500484 533.878400
   2553   2552   2559     1   112.3500484 533.878400
   2553   2565   2577     1   111.5100476 526.347200
   2556   2552   2559     1   112.3500484 533.878400
   2556   2568   2574     1   111.5100476 526.347200
   2559   2562   2571     1   111.5100476 526.347200
   2562   2571   2580     1   107.9700462 569.024000
   2565   2577   5327     1   107.9700462 569.024000
   2568   2574   5296     1   107.9700462 569.024000
   2574   5296   5266     1   112.4800480 524.673600
   2577   5327   5297     1   112.4800480 524.673600
   2581   2582   2594     1   111.0400475 552.288000
   2581   2585   2597     1   111.0400475 552.288000
   2581   2588   2591     1   111.0400475 552.288000
   2582   2581   2585     1   112.3500484 533.878400
   2582   2581   2588     1   112.3500484 533.878400
   2582   2594   2606     1   111.5100476 526.347200
   2585   2581   2588     1   112.3500484 533.878400
   2585   2597   2603     1   111.5100476 526.347200
   2588   2591   2600     1   111.5100476 526.347200
   2591   2600   2609     1   107.9700462 569.024000
   2594   2606   5389     1   107.9700462 569.024000
   2597   2603   5358     1   107.9700462 569.024000
   2603   5358   5328     1   112.4800480 524.673600
   2606   5389   5359     1   112.4800480 524.673600
   2610   2611   2623     1   111.0400475 552.288000
   2610   2614   2626     1   111.0400475 552.288000
   2610   2617   2620     1   111.0400475 552.288000
   2611   2610   2614     1   112.3500484 533.878400
   2611   2610   2617     1   112.3500484 533.878400
   2611   2623   2635     1   111.5100476 526.347200
   2614   2610   2617     1   112.3500484 533.878400
   2614   2626   2632     1   111.5100476 526.347200
   2617   2620   2629     1   111.5100476 526.347200
   2620   2629   2638     1   107.9700462 569.024000
   2623   2635   5451     1   107.9700462 569.024000
   2626   2632   5420     1   107.9700462 569.024000
   2632   5420   5390     1   112.4800480 524.673600
   2635   5451   5421     1   112.4800480 524.673600
   2639   2640   2652     1   111.0400475 552.288000
   2639   2643   2655     1   111.0400475 552.288000
   2639   2646   2649     1   111.0400475 552.288000
   2640   2639   2643     1   112.3500484 533.878400
   2640   2639   2646     1   112.3500484 533.878400
   2640   2652   2664     1   111.5100476 526.347200
   2643   2639   2646     1   112.3500484 533.878400
   2643   2655   2661     1   111.5100476 526.347200
   2646   2649   2658     1   111.5100476 526.347200
   2649   2658   2667     1   107.9700462 569.024000
   2652   2664   5513     1   107.9700462 569.024000
   2655   2661   5482     1   107.9700462 569.024000
   2661   5482   5452     1   112.4800480 524.673600
   2664   5513   5483     1   112.4800480 524.673600
   2668   2669   2681     1   111.0400475 552.288000
   2668   2672   2684     1   111.0400475 552.288000
   2668   2675   2678     1   111.0400475 552.288000
   2669   2668   2672     1   112.3500484 533.878400
   2669   2668   2675     1   112.3500484 533.878400
   2669   2681   2693     1   111.5100476 526.347200
   2672   2668   2675     1   112.3500484 533.878400
   2672   2684   2690     1   111.5100476 526.347200
   2675   2678   2687     1   111.5100476 526.347200
   2678   2687   2696     1   107.9700462 569.024000
   2681   2693   5575     1   107.9700462 569.024000
   2684   2690   5544     1   107.9700462 569.024000
   2690   5544   5514     1   112.4800480 524.673600
   2693   5575   5545     1   112.4800480 524.673600
   2697   2698   2710     1   111.0400475 552.288000
   2697   2701   2713     1   111.0400475 552.288000
   2697   2704   2707     1   111.0400475 552.288000
   2698   2697   2701     1   112.3500484 533.878400
   2698   2697   2704     1   112.3500484 533.878400
   2698   2710   2722     1   111.5100476 526.347200
   2701   2697   2704     1   112.3500484 533.878400
   2701   2713   2719     1   111.5100476 526.347200
   2704   2707   2716     1   111.5100476 526.347200
   2707   2716   2725     1   107.9700462 569.024000
   2710   2722   5637     1   107.9700462 569.024000
   2713   2719   5606     1   107.9700462 569.024000
   2719   5606   5576     1   112.4800480 524.673600
   2722   5637   5607     1   112.4800480 524.673600
   2726   2727   2739     1   111.0400475 552.288000
   2726   2730   2742     1   111.0400475 552.288000
   2726   2733   2736     1   111.0400475 552.288000
   2727   2726   2730     1   112.3500484 533.878400
   2727   2726   2733     1   112.3500484 533.878400
   2727   2739   2751     1   111.5100476 526.347200
   2730   2726   2733     1   112.3500484 533.878400
   2730   2742   2748     1   111.5100476 526.347200
   2733   2736   2745     1   111.5100476 526.347200
   2736   2745   2754     1   107.9700462 569.024000
   2739   2751   5699     1   107.9700462 569.024000
   2742   2748   5668     1   107.9700462 569.024000
   2748   5668   5638     1   112.4800480 524.673600
   2751   5699   5669     1   112.4800480 524.673600
   2755   2756   2768     1   111.0400475 552.288000
   2755   2759   2771     1   111.0400475 552.288000
   2755   2762   2765     1   111.0400475 552.288000
   2756   2755   2759     1   112.3500484 533.878400
   2756   2755   2762     1   112.3500484 533.878400
   2756   2768   2780     1   111.5100476 526.347200
   2759   2755   2762     1   112.3500484 533.878400
   2759   2771   2777     1   111.5100476 526.347200
   2762   2765   2774     1   111.5100476 526.347200
   2765   2774   2783     1   107.9700462 569.024000
   2768   2780   5761     1   107.9700462 569.024000
   2771   2777   5730     1   107.9700462 569.024000
   2777   5730   5700     1   112.4800480 524.673600
   2780   5761   5731     1   112.4800480 524.673600
   2784   2785   2797     1   111.0400475 552.288000
   2784   2788   2800     1   111.0400475 552.288000
   2784   2791   2794     1   111.0400475 552.288000
   2785   2784   2788     1   112.3500484 533.878400
   2785   2784   2791     1   112.3500484 533.878400
   2785   2797   2809     1   111.5100476 526.347200
   2788   2784   2791     1   112.3500484 533.878400
   2788   2800   2806     1   111.5100476 526.347200
   2791   2794   2803     1   111.5100476 526.347200
   2794   2803   2812     1   107.9700462 569.024000
   2797   2809   5823     1   107.9700462 569.024000
   2800   2806   5792     1   107.9700462 569.024000
   2806   5792   5762     1   112.4800480 524.673600
   2809   5823   5793     1   112.4800480 524.673600
   2813   2814   2826     1   111.0400475 552.288000
   2813   2817   2829     1   111.0400475 552.288000
   2813   2820   2823     1   111.0400475 552.288000
   2814   2813   2817     1   112.3500484 533.878400
   2814   2813   2820     1   112.3500484 533.878400
   2814   2826   2838     1   111.5100476 526.347200
   2817   2813   2820     1   112.3500484 533.878400
   2817   2829   2835     1   111.5100476 526.347200
   2820   2823   2832     1   111.5100476 526.347200
   2823   2832   2841     1   107.9700462 569.024000
   2826   2838   5885     1   107.9700462 569.024000
   2829   2835   5854     1   107.9700462 569.024000
   2835   5854   5824     1   112.4800480 524.673600
   2838   5885   5855     1   112.4800480 524.673600
   2842   2843   2855     1   111.0400475 552.288000
   2842   2846   2858     1   111.0400475 552.288000
   2842   2849   2852     1   111.0400475 552.288000
   2843   2842   2846     1   112.3500484 533.878400
   2843   2842   2849     1   112.3500484 533.878400
   2843   2855   2867     1   111.5100476 526.347200
   2846   2842   2849     1   112.3500484 533.878400
   2846   2858   2864     1   111.5100476 526.347200
   2849   2852   2861     1   111.5100476 526.347200
   2852   2861   2870     1   107.9700462 569.024000
   2855   2867   5947     1   107.9700462 569.024000
   2858   2864   5916     1   107.9700462 569.024000
   2864   5916   5886     1   112.4800480 524.673600
   2867   5947   5917     1   112.4800480 524.673600
   2871   2872   2884     1   111.0400475 552.288000
   2871   2875   2887     1   111.0400475 552.288000
   2871   2878   2881     1   111.0400475 552.288000
   2872   2871   2875     1   112.3500484 533.878400
   2872   2871   2878     1   112.3500484 533.878400
   2872   2884   2896     1   111.5100476 526.347200
   2875   2871   2878     1   112.3500484 533.878400
   2875   2887   2893     1   111.5100476 526.347200
   2878   2881   2890     1   111.5100476 526.347200
   2881   2890   2899     1   107.9700462 569.024000
   2884   2896   6009     1   107.9700462 569.024000
   2887   2893   5978     1   107.9700462 569.024000
   2893   5978   5948     1   112.4800480 524.673600
   2896   6009   5979     1   112.4800480 524.673600
   2900   2901   2913     1   111.0400475 552.288000
   2900   2904   2916     1   111.0400475 552.288000
   2900   2907   2910     1   111.0400475 552.288000
   2901   2900   2904     1   112.3500484 533.878400
   2901   2900   2907     1   112.3500484 533.878400
   2901   2913   2925     1   111.5100476 526.347200
   2904   2900   2907     1   112.3500484 533.878400
   2904   2916   2922     1   111.5100476 526.347200
   2907   2910   2919     1   111.5100476 526.347200
   2910   2919   2928     1   107.9700462 569.024000
   2913   2925   6071     1   107.9700462 569.024000
   2916   2922   6040     1   107.9700462 569.024000
   2922   6040   6010     1   112.4800480 524.673600
   2925   6071   6041     1   112.4800480 524.673600
   2929   2930   2942     1   111.0400475 552.288000
   2929   2933   2945     1   111.0400475 552.288000
   2929   2936   2939     1   111.0400475 552.288000
   2930   2929   2933     1   112.3500484 533.878400
   2930   2929   2936     1   112.3500484 533.878400
   2930   2942   2954     1   111.5100476 526.347200
   2933   2929   2936     1   112.3500484 533.878400
   2933   2945   2951     1   111.5100476 526.347200
   2936   2939   2948     1   111.5100476 526.347200
   2939   2948   2957     1   107.9700462 569.024000
   2942   2954   6133     1   107.9700462 569.024000
   2945   2951   6102     1   107.9700462 569.024000
   2951   6102   6072     1   112.4800480 524.673600
   2954   6133   6103     1   112.4800480 524.673600
   2958   2959   2971     1   111.0400475 552.288000
   2958   2962   2974     1   111.0400475 552.288000
   2958   2965   2968     1   111.0400475 552.288000
   2959   2958   2962     1   112.3500484 533.878400
   2959   2958   2965     1   112.3500484 533.878400
   2959   2971   2983     1   111.5100476 526.347200
   2962   2958   2965     1   112.3500484 533.878400
   2962   2974   2980     1   111.5100476 526.347200
   2965   2968   2977     1   111.5100476 526.347200
   2968   2977   2986     1   107.9700462 569.024000
   2971   2983   6195     1   107.9700462 569.024000
   2974   2980   6164     1   107.9700462 569.024000
   2980   6164   6134     1   112.4800480 524.673600
   2983   6195   6165     1   112.4800480 524.673600
   2987   2988   3000     1   111.0400475 552.288000
   2987   2991   3003     1   111.0400475 552.288000
   2987   2994   2997     1   111.0400475 552.288000
   2988   2987   2991     1   112.3500484 533.878400
   2988   2987   2994     1   112.3500484 533.878400
   2988   3000   3012     1   111.5100476 526.347200
   2991   2987   2994     1   112.3500484 533.878400
   2991   3003   3009     1   111.5100476 526.347200
   2994   2997   3006     1   111.5100476 526.347200
   2997   3006   3015     1   107.9700462 569.024000
   3000   3012   6257     1   107.9700462 569.024000
   3003   3009   6226     1   107.9700462 569.024000
   3009   6226   6196     1   112.4800480 524.673600
   3012   6257   6227     1   112.4800480 524.673600
   3016   3017   3029     1   111.0400475 552.288000
   3016   3020   3032     1   111.0400475 552.288000
   3016   3023   3026     1   111.0400475 552.288000
   3017   3016   3020     1   112.3500484 533.878400
   3017   3016   3023     1   112.3500484 533.878400
   3017   3029   3041     1   111.5100476 526.347200
   3020   3016   3023     1   112.3500484 533.878400
   3020   3032   3038     1   111.5100476 526.347200
   3023   3026   3035     1   111.5100476 526.347200
   3026   3035   3044     1   107.9700462 569.024000
   3029   3041   6319     1   107.9700462 569.024000
   3032   3038   6288     1   107.9700462 569.024000
   3038   6288   6258     1   112.4800480 524.673600
   3041   6319   6289     1   112.4800480 524.673600
   3045   3046   3058     1   111.0400475 552.288000
   3045   3049   3061     1   111.0400475 552.288000
   3045   3052   3055     1   111.0400475 552.288000
   3046   3045   3049     1   112.3500484 533.878400
   3046   3045   3052     1   112.3500484 533.878400
   3046   3058   3070     1   111.5100476 526.347200
   3049   3045   3052     1   112.3500484 533.878400
   3049   3061   3067     1   111.5100476 526.347200
   3052   3055   3064     1   111.5100476 526.347200
   3055   3064   3073     1   107.9700462 569.024000
   3058   3070   6381     1   107.9700462 569.024000
   3061   3067   6350     1   107.9700462 569.024000
   3067   6350   6320     1   112.4800480 524.673600
   3070   6381   6351     1   112.4800480 524.673600
   3074   3075   3087     1   111.0400475 552.288000
   3074   3078   3090     1   111.0400475 552.288000
   3074   3081   3084     1   111.0400475 552.288000
   3075   3074   3078     1   112.3500484 533.878400
   3075   3074   3081     1   112.3500484 533.878400
   3075   3087   3099     1   111.5100476 526.347200
   3078   3074   3081     1   112.3500484 533.878400
   3078   3090   3096     1   111.5100476 526.347200
   3081   3084   3093     1   111.5100476 526.347200
   3084   3093   3102     1   107.9700462 569.024000
   3087   3099   6443     1   107.9700462 569.024000
   3090   3096   6412     1   107.9700462 569.024000
   3096   6412   6382     1   112.4800480 524.673600
   3099   6443   6413     1   112.4800480 524.673600
   3103   3104   3116     1   111.0400475 552.288000
   3103   3107   3119     1   111.0400475 552.288000
   3103   3110   3113     1   111.0400475 552.288000
   3104   3103   3107     1   112.3500484 533.878400
   3104   3103   3110     1   112.3500484 533.878400
   3104   3116   3128     1   111.5100476 526.347200
   3107   3103   3110     1   112.3500484 533.878400
   3107   3119   3125     1   111.5100476 526.347200
   3110   3113   3122     1   111.5100476 526.347200
   3113   3122   3131     1   107.9700462 569.024000
   3116   3128   6505     1   107.9700462 569.024000
   3119   3125   6474     1   107.9700462 569.024000
   3125   6474   6444     1   112.4800480 524.673600
   3128   6505   6475     1   112.4800480 524.673600
   3132   3133   3145     1   111.0400475 552.288000
   3132   3136   3148     1   111.0400475 552.288000
   3132   3139   3142     1   111.0400475 552.288000
   3133   3132   3136     1   112.3500484 533.878400
   3133   3132   3139     1   112.3500484 533.878400
   3133   3145   3157     1   111.5100476 526.347200
   3136   3132   3139     1   112.3500484 533.878400
   3136   3148   3154     1   111.5100476 526.347200
   3139   3142   3151     1   111.5100476 526.347200
   3142   3151   3160     1   107.9700462 569.024000
   3145   3157   6567     1   107.9700462 569.024000
   3148   3154   6536     1   107.9700462 569.024000
   3154   6536   6506     1   112.4800480 524.673600
   3157   6567   6537     1   112.4800480 524.673600
   3161   3162   3174     1   111.0400475 552.288000
   3161   3165   3177     1   111.0400475 552.288000
   3161   3168   3171     1   111.0400475 552.288000
   3162   3161   3165     1   112.3500484 533.878400
   3162   3161   3168     1   112.3500484 533.878400
   3162   3174   3186     1   111.5100476 526.347200
   3165   3161   3168     1   112.3500484 533.878400
   3165   3177   3183     1   111.5100476 526.347200
   3168   3171   3180     1   111.5100476 526.347200
   3171   3180   3189     1   107.9700462 569.024000
   3174   3186   6629     1   107.9700462 569.024000
   3177   3183   6598     1   107.9700462 569.024000
   3183   6598   6568     1   112.4800480 524.673600
   3186   6629   6599     1   112.4800480 524.673600
   3190   3191   3203     1   111.0400475 552.288000
   3190   3194   3206     1   111.0400475 552.288000
   3190   3197   3200     1   111.0400475 552.288000
   3191   3190   3194     1   112.3500484 533.878400
   3191   3190   3197     1   112.3500484 533.878400
   3191   3203   3215     1   111.5100476 526.347200
   3194   3190   3197     1   112.3500484 533.878400
   3194   3206   3212     1   111.5100476 526.347200
   3197   3200   3209     1   111.5100476 526.347200
   3200   3209   3218     1   107.9700462 569.024000
   3203   3215   6691     1   107.9700462 569.024000
   3206   3212   6660     1   107.9700462 569.024000
   3212   6660   6630     1   112.4800480 524.673600
   3215   6691   6661     1   112.4800480 524.673600
   3219   3220   3232     1   111.0400475 552.288000
   3219   3223   3235     1   111.0400475 552.288000
   3219   3226   3229     1   111.0400475 552.288000
   3220   3219   3223     1   112.3500484 533.878400
   3220   3219   3226     1   112.3500484 533.878400
   3220   3232   3244     1   111.5100476 526.347200
   3223   3219   3226     1   112.3500484 533.878400
   3223   3235   3241     1   111.5100476 526.347200
   3226   3229   3238     1   111.5100476 526.347200
   3229   3238   3247     1   107.9700462 569.024000
   3232   3244   6753     1   107.9700462 569.024000
   3235   3241   6722     1   107.9700462 569.024000
   3241   6722   6692     1   112.4800480 524.673600
   3244   6753   6723     1   112.4800480 524.673600
   3248   3249   3261     1   111.0400475 552.288000
   3248   3252   3264     1   111.0400475 552.288000
   3248   3255   3258     1   111.0400475 552.288000
   3249   3248   3252     1   112.3500484 533.878400
   3249   3248   3255     1   112.3500484 533.878400
   3249   3261   3273     1   111.5100476 526.347200
   3252   3248   3255     1   112.3500484 533.878400
   3252   3264   3270     1   111.5100476 526.347200
   3255   3258   3267     1   111.5100476 526.347200
   3258   3267   3276     1   107.9700462 569.024000
   3261   3273   6815     1   107.9700462 569.024000
   3264   3270   6784     1   107.9700462 569.024000
   3270   6784   6754     1   112.4800480 524.673600
   3273   6815   6785     1   112.4800480 524.673600
   3277   3278   3290     1   111.0400475 552.288000
   3277   3281   3293     1   111.0400475 552.288000
   3277   3284   3287     1   111.0400475 552.288000
   3278   3277   3281     1   112.3500484 533.878400
   3278   3277   3284     1   112.3500484 533.878400
   3278   3290   3302     1   111.5100476 526.347200
   3281   3277   3284     1   112.3500484 533.878400
   3281   3293   3299     1   111.5100476 526.347200
   3284   3287   3296     1   111.5100476 526.347200
   3287   3296   3305     1   107.9700462 569.024000
   3290   3302   6877     1   107.9700462 569.024000
   3293   3299   6846     1   107.9700462 569.024000
   3299   6846   6816     1   112.4800480 524.673600
   3302   6877   6847     1   112.4800480 524.673600
   3306   3307   3319     1   111.0400475 552.288000
   3306   3310   3322     1   111.0400475 552.288000
   3306   3313   3316     1   111.0400475 552.288000
   3307   3306   3310     1   112.3500484 533.878400
   3307   3306   3313     1   112.3500484 533.878400
   3307   3319   3331     1   111.5100476 526.347200
   3310   3306   3313     1   112.3500484 533.878400
   3310   3322   3328     1   111.5100476 526.347200
   3313   3316   3325     1   111.5100476 526.347200
   3316   3325   3334     1   107.9700462 569.024000
   3319   3331   6939     1   107.9700462 569.024000
   3322   3328   6908     1   107.9700462 569.024000
   3328   6908   6878     1   112.4800480 524.673600
   3331   6939   6909     1   112.4800480 524.673600
   3335   3336   3348     1   111.0400475 552.288000
   3335   3339   3351     1   111.0400475 552.288000
   3335   3342   3345     1   111.0400475 552.288000
   3336   3335   3339     1   112.3500484 533.878400
   3336   3335   3342     1   112.3500484 533.878400
   3336   3348   3360     1   111.5100476 526.347200
   3339   3335   3342     1   112.3500484 533.878400
   3339   3351   3357     1   111.5100476 526.347200
   3342   3345   3354     1   111.5100476 526.347200
   3345   3354   3363     1   107.9700462 569.024000
   3348   3360   7001     1   107.9700462 569.024000
   3351   3357   6970     1   107.9700462 569.024000
   3357   6970   6940     1   112.4800480 524.673600
   3360   7001   6971     1   112.4800480 524.673600
   3364   3365   3377     1   111.0400475 552.288000
   3364   3368   3380     1   111.0400475 552.288000
   3364   3371   3374     1   111.0400475 552.288000
   3365   3364   3368     1   112.3500484 533.878400
   3365   3364   3371     1   112.3500484 533.878400
   3365   3377   3389     1   111.5100476 526.347200
   3368   3364   3371     1   112.3500484 533.878400
   3368   3380   3386     1   111.5100476 526.347200
   3371   3374   3383     1   111.5100476 526.347200
   3374   3383   3392     1   107.9700462 569.024000
   3377   3389   7063     1   107.9700462 569.024000
   3380   3386   7032     1   107.9700462 569.024000
   3386   7032   7002     1   112.4800480 524.673600
   3389   7063   7033     1   112.4800480 524.673600
   3393   3394   3406     1   111.0400475 552.288000
   3393   3397   3409     1   111.0400475 552.288000
   3393   3400   3403     1   111.0400475 552.288000
   3394   3393   3397     1   112.3500484 533.878400
   3394   3393   3400     1   112.3500484 533.878400
   3394   3406   3418     1   111.5100476 526.347200
   3397   3393   3400     1   112.3500484 533.878400
   3397   3409   3415     1   111.5100476 526.347200
   3400   3403   3412     1   111.5100476 526.347200
   3403   3412   3421     1   107.9700462 569.024000
   3406   3418   7125     1   107.9700462 569.024000
   3409   3415   7094     1   107.9700462 569.024000
   3415   7094   7064     1   112.4800480 524.673600
   3418   7125   7095     1   112.4800480 524.673600
   3422   3423   3435     1   111.0400475 552.288000
   3422   3426   3438     1   111.0400475 552.288000
   3422   3429   3432     1   111.0400475 552.288000
   3423   3422   3426     1   112.3500484 533.878400
   3423   3422   3429     1   112.3500484 533.878400
   3423   3435   3447     1   111.5100476 526.347200
   3426   3422   3429     1   112.3500484 533.878400
   3426   3438   3444     1   111.5100476 526.347200
   3429   3432   3441     1   111.5100476 526.347200
   3432   3441   3450     1   107.9700462 569.024000
   3435   3447   7187     1   107.9700462 569.024000
   3438   3444   7156     1   107.9700462 569.024000
   3444   7156   7126     1   112.4800480 524.673600
   3447   7187   7157     1   112.4800480 524.673600
   3451   3452   3464     1   111.0400475 552.288000
   3451   3455   3467     1   111.0400475 552.288000
   3451   3458   3461     1   111.0400475 552.288000
   3452   3451   3455     1   112.3500484 533.878400
   3452   3451   3458     1   112.3500484 533.878400
   3452   3464   3476     1   111.5100476 526.347200
   3455   3451   3458     1   112.3500484 533.878400
   3455   3467   3473     1   111.5100476 526.347200
   3458   3461   3470     1   111.5100476 526.347200
   3461   3470   3479     1   107.9700462 569.024000
   3464   3476   7249     1   107.9700462 569.024000
   3467   3473   7218     1   107.9700462 569.024000
   3473   7218   7188     1   112.4800480 524.673600
   3476   7249   7219     1   112.4800480 524.673600
   3480   3481   3493     1   111.0400475 552.288000
   3480   3484   3496     1   111.0400475 552.288000
   3480   3487   3490     1   111.0400475 552.288000
   3481   3480   3484     1   112.3500484 533.878400
   3481   3480   3487     1   112.3500484 533.878400
   3481   3493   3505     1   111.5100476 526.347200
   3484   3480   3487     1   112.3500484 533.878400
   3484   3496   3502     1   111.5100476 526.347200
   3487   3490   3499     1   111.5100476 526.347200
   3490   3499   3508     1   107.9700462 569.024000
   3493   3505   7311     1   107.9700462 569.024000
   3496   3502   7280     1   107.9700462 569.024000
   3502   7280   7250     1   112.4800480 524.673600
   3505   7311   7281     1   112.4800480 524.673600
   3509   3510   3522     1   111.0400475 552.288000
   3509   3513   3525     1   111.0400475 552.288000
   3509   3516   3519     1   111.0400475 552.288000
   3510   3509   3513     1   112.3500484 533.878400
   3510   3509   3516     1   112.3500484 533.878400
   3510   3522   3534     1   111.5100476 526.347200
   3513   3509   3516     1   112.3500484 533.878400
   3513   3525   3531     1   111.5100476 526.347200
   3516   3519   3528     1   111.5100476 526.347200
   3519   3528   3537     1   107.9700462 569.024000
   3522   3534   7373     1   107.9700462 569.024000
   3525   3531   7342     1   107.9700462 569.024000
   3531   7342   7312     1   112.4800480 524.673600
   3534   7373   7343     1   112.4800480 524.673600
   3538   3539   3551     1   111.0400475 552.288000
   3538   3542   3554     1   111.0400475 552.288000
   3538   3545   3548     1   111.0400475 552.288000
   3539   3538   3542     1   112.3500484 533.878400
   3539   3538   3545     1   112.3500484 533.878400
   3539   3551   3563     1   111.5100476 526.347200
   3542   3538   3545     1   112.3500484 533.878400
   3542   3554   3560     1   111.5100476 526.347200
   3545   3548   3557     1   111.5100476 526.347200
   3548   3557   3566     1   107.9700462 569.024000
   3551   3563   7435     1   107.9700462 569.024000
   3554   3560   7404     1   107.9700462 569.024000
   3560   7404   7374     1   112.4800480 524.673600
   3563   7435   7405     1   112.4800480 524.673600
   3567   3568   3580     1   111.0400475 552.288000
   3567   3571   3583     1   111.0400475 552.288000
   3567   3574   3577     1   111.0400475 552.288000
   3568   3567   3571     1   112.3500484 533.878400
   3568   3567   3574     1   112.3500484 533.878400
   3568   3580   3592     1   111.5100476 526.347200
   3571   3567   3574     1   112.3500484 533.878400
   3571   3583   3589     1   111.5100476 526.347200
   3574   3577   3586     1   111.5100476 526.347200
   3577   3586   3595     1   107.9700462 569.024000
   3580   3592   7497     1   107.9700462 569.024000
   3583   3589   7466     1   107.9700462 569.024000
   3589   7466   7436     1   112.4800480 524.673600
   3592   7497   7467     1   112.4800480 524.673600
   3596   3597   3609     1   111.0400475 552.288000
   3596   3600   3612     1   111.0400475 552.288000
   3596   3603   3606     1   111.0400475 552.288000
   3597   3596   3600     1   112.3500484 533.878400
   3597   3596   3603     1   112.3500484 533.878400
   3597   3609   3621     1   111.5100476 526.347200
   3600   3596   3603     1   112.3500484 533.878400
   3600   3612   3618     1   111.5100476 526.347200
   3603   3606   3615     1   111.5100476 526.347200
   3606   3615   3624     1   107.9700462 569.024000
   3609   3621   7559     1   107.9700462 569.024000
   3612   3618   7528     1   107.9700462 569.024000
   3618   7528   7498     1   112.4800480 524.673600
   3621   7559   7529     1   112.4800480 524.673600
   3625   3626   3638     1   111.0400475 552.288000
   3625   3629   3641     1   111.0400475 552.288000
   3625   3632   3635     1   111.0400475 552.288000
   3626   3625   3629     1   112.3500484 533.878400
   3626   3625   3632     1   112.3500484 533.878400
   3626   3638   3650     1   111.5100476 526.347200
   3629   3625   3632     1   112.3500484 533.878400
   3629   3641   3647     1   111.5100476 526.347200
   3632   3635   3644     1   111.5100476 526.347200
   3635   3644   3653     1   107.9700462 569.024000
   3638   3650   7621     1   107.9700462 569.024000
   3641   3647   7590     1   107.9700462 569.024000
   3647   7590   7560     1   112.4800480 524.673600
   3650   7621   7591     1   112.4800480 524.673600
   3654   3657   3660     1   111.5100476 526.347200
   3657   3654   3684     1   107.9700462 569.024000
   3657   3660   3663     1   111.0400475 552.288000
   3660   3663   3664     1   112.3500484 533.878400
   3660   3663   3674     1   112.3500484 533.878400
   3663   3664   3667     1   111.0400475 552.288000
   3663   3674   3677     1   111.0400475 552.288000
   3664   3663   3674     1   112.3500484 533.878400
   3664   3667   3670     1   111.0400475 529.694400
   3667   3670   3671     1   123.2000528 564.003200
   3667   3670   3672     1   112.7300484 572.371200
   3671   3670   3672     1   122.1000523 635.131200
   3674   3677   3680     1   111.0400475 529.694400
   3677   3680   3681     1   123.2000528 564.003200
   3677   3680   3682     1   112.7300484 572.371200
   3681   3680   3682     1   122.1000523 635.131200
   3685   3688   3691     1   111.5100476 526.347200
   3688   3691   3694     1   111.0400475 552.288000
   3688   3685   3715     1   107.9700462 569.024000
   3691   3694   3695     1   112.3500484 533.878400
   3691   3694   3705     1   112.3500484 533.878400
   3694   3695   3698     1   111.0400475 552.288000
   3694   3705   3708     1   111.0400475 552.288000
   3695   3698   3701     1   111.0400475 529.694400
   3695   3694   3705     1   112.3500484 533.878400
   3698   3701   3702     1   123.2000528 564.003200
   3698   3701   3703     1   112.7300484 572.371200
   3702   3701   3703     1   122.1000523 635.131200
   3705   3708   3711     1   111.0400475 529.694400
   3708   3711   3712     1   123.2000528 564.003200
   3708   3711   3713     1   112.7300484 572.371200
   3712   3711   3713     1   122.1000523 635.131200
   3716   3719   3722     1   111.5100476 526.347200
   3719   3716   3746     1   107.9700462 569.024000
   3719   3722   3725     1   111.0400475 552.288000
   3722   3725   3726     1   112.3500484 533.878400
   3722   3725   3736     1   112.3500484 533.878400
   3725   3726   3729     1   111.0400475 552.288000
   3725   3736   3739     1   111.0400475 552.288000
   3726   3725   3736     1   112.3500484 533.878400
   3726   3729   3732     1   111.0400475 529.694400
   3729   3732   3733     1   123.2000528 564.003200
   3729   3732   3734     1   112.7300484 572.371200
   3733   3732   3734     1   122.1000523 635.131200
   3736   3739   3742     1   111.0400475 529.694400
   3739   3742   3743     1   123.2000528 564.003200
   3739   3742   3744     1   112.7300484 572.371200
   3743   3742   3744     1   122.1000523 635.131200
   3747   3750   3753     1   111.5100476 526.347200
   3750   3753   3756     1   111.0400475 552.288000
   3750   3747   3777     1   107.9700462 569.024000
   3753   3756   3757     1   112.3500484 533.878400
   3753   3756   3767     1   112.3500484 533.878400
   3756   3757   3760     1   111.0400475 552.288000
   3756   3767   3770     1   111.0400475 552.288000
   3757   3760   3763     1   111.0400475 529.694400
   3757   3756   3767     1   112.3500484 533.878400
   3760   3763   3764     1   123.2000528 564.003200
   3760   3763   3765     1   112.7300484 572.371200
   3764   3763   3765     1   122.1000523 635.131200
   3767   3770   3773     1   111.0400475 529.694400
   3770   3773   3774     1   123.2000528 564.003200
   3770   3773   3775     1   112.7300484 572.371200
   3774   3773   3775     1   122.1000523 635.131200
   3778   3781   3784     1   111.5100476 526.347200
   3781   3778   3808     1   107.9700462 569.024000
   3781   3784   3787     1   111.0400475 552.288000
   3784   3787   3788     1   112.3500484 533.878400
   3784   3787   3798     1   112.3500484 533.878400
   3787   3788   3791     1   111.0400475 552.288000
   3787   3798   3801     1   111.0400475 552.288000
   3788   3787   3798     1   112.3500484 533.878400
   3788   3791   3794     1   111.0400475 529.694400
   3791   3794   3795     1   123.2000528 564.003200
   3791   3794   3796     1   112.7300484 572.371200
   3795   3794   3796     1   122.1000523 635.131200
   3798   3801   3804     1   111.0400475 529.694400
   3801   3804   3805     1   123.2000528 564.003200
   3801   3804   3806     1   112.7300484 572.371200
   3805   3804   3806     1   122.1000523 635.131200
   3809   3812   3815     1   111.5100476 526.347200
   3812   3815   3818     1   111.0400475 552.288000
   3812   3809   3839     1   107.9700462 569.024000
   3815   3818   3819     1   112.3500484 533.878400
   3815   3818   3829     1   112.3500484 533.878400
   3818   3819   3822     1   111.0400475 552.288000
   3818   3829   3832     1   111.0400475 552.288000
   3819   3822   3825     1   111.0400475 529.694400
   3819   3818   3829     1   112.3500484 533.878400
   3822   3825   3826     1   123.2000528 564.003200
   3822   3825   3827     1   112.7300484 572.371200
   3826   3825   3827     1   122.1000523 635.131200
   3829   3832   3835     1   111.0400475 529.694400
   3832   3835   3836     1   123.2000528 564.003200
   3832   3835   3837     1   112.7300484 572.371200
   3836   3835   3837     1   122.1000523 635.131200
   3840   3843   3846     1   111.5100476 526.347200
   3843   3840   3870     1   107.9700462 569.024000
   3843   3846   3849     1   111.0400475 552.288000
   3846   3849   3850     1   112.3500484 533.878400
   3846   3849   3860     1   112.3500484 533.878400
   3849   3850   3853     1   111.0400475 552.288000
   3849   3860   3863     1   111.0400475 552.288000
   3850   3849   3860     1   112.3500484 533.878400
   3850   3853   3856     1   111.0400475 529.694400
   3853   3856   3857     1   123.2000528 564.003200
   3853   3856   3858     1   112.7300484 572.371200
   3857   3856   3858     1   122.1000523 635.131200
   3860   3863   3866     1   111.0400475 529.694400
   3863   3866   3867     1   123.2000528 564.003200
   3863   3866   3868     1   112.7300484 572.371200
   3867   3866   3868     1   122.1000523 635.131200
   3871   3874   3877     1   111.5100476 526.347200
   3874   3877   3880     1   111.0400475 552.288000
   3874   3871   3901     1   107.9700462 569.024000
   3877   3880   3881     1   112.3500484 533.878400
   3877   3880   3891     1   112.3500484 533.878400
   3880   3881   3884     1   111.0400475 552.288000
   3880   3891   3894     1   111.0400475 552.288000
   3881   3884   3887     1   111.0400475 529.694400
   3881   3880   3891     1   112.3500484 533.878400
   3884   3887   3888     1   123.2000528 564.003200
   3884   3887   3889     1   112.7300484 572.371200
   3888   3887   3889     1   122.1000523 635.131200
   3891   3894   3897     1   111.0400475 529.694400
   3894   3897   3898     1   123.2000528 564.003200
   3894   3897   3899     1   112.7300484 572.371200
   3898   3897   3899     1   122.1000523 635.131200
   3902   3905   3908     1   111.5100476 526.347200
   3905   3902   3932     1   107.9700462 569.024000
   3905   3908   3911     1   111.0400475 552.288000
   3908   3911   3912     1   112.3500484 533.878400
   3908   3911   3922     1   112.3500484 533.878400
   3911   3912   3915     1   111.0400475 552.288000
   3911   3922   3925     1   111.0400475 552.288000
   3912   3911   3922     1   112.3500484 533.878400
   3912   3915   3918     1   111.0400475 529.694400
   3915   3918   3919     1   123.2000528 564.003200
   3915   3918   3920     1   112.7300484 572.371200
   3919   3918   3920     1   122.1000523 635.131200
   3922   3925   3928     1   111.0400475 529.694400
   3925   3928   3929     1   123.2000528 564.003200
   3925   3928   3930     1   112.7300484 572.371200
   3929   3928   3930     1   122.1000523 635.131200
   3933   3936   3939     1   111.5100476 526.347200
   3936   3939   3942     1   111.0400475 552.288000
   3936   3933   3963     1   107.9700462 569.024000
   3939   3942   3943     1   112.3500484 533.878400
   3939   3942   3953     1   112.3500484 533.878400
   3942   3943   3946     1   111.0400475 552.288000
   3942   3953   3956     1   111.0400475 552.288000
   3943   3946   3949     1   111.0400475 529.694400
   3943   3942   3953     1   112.3500484 533.878400
   3946   3949   3950     1   123.2000528 564.003200
   3946   3949   3951     1   112.7300484 572.371200
   3950   3949   3951     1   122.1000523 635.131200
   3953   3956   3959     1   111.0400475 529.694400
   3956   3959   3960     1   123.2000528 564.003200
   3956   3959   3961     1   112.7300484 572.371200
   3960   3959   3961     1   122.1000523 635.131200
   3964   3967   3970     1   111.5100476 526.347200
   3967   3964   3994     1   107.9700462 569.024000
   3967   3970   3973     1   111.0400475 552.288000
   3970   3973   3974     1   112.3500484 533.878400
   3970   3973   3984     1   112.3500484 533.878400
   3973   3974   3977     1   111.0400475 552.288000
   3973   3984   3987     1   111.0400475 552.288000
   3974   3973   3984     1   112.3500484 533.878400
   3974   3977   3980     1   111.0400475 529.694400
   3977   3980   3981     1   123.2000528 564.003200
   3977   3980   3982     1   112.7300484 572.371200
   3981   3980   3982     1   122.1000523 635.131200
   3984   3987   3990     1   111.0400475 529.694400
   3987   3990   3991     1   123.2000528 564.003200
   3987   3990   3992     1   112.7300484 572.371200
   3991   3990   3992     1   122.1000523 635.131200
   3995   3998   4001     1   111.5100476 526.347200
   3998   4001   4004     1   111.0400475 552.288000
   3998   3995   4025     1   107.9700462 569.024000
   4001   4004   4005     1   112.3500484 533.878400
   4001   4004   4015     1   112.3500484 533.878400
   4004   4005   4008     1   111.0400475 552.288000
   4004   4015   4018     1   111.0400475 552.288000
   4005   4008   4011     1   111.0400475 529.694400
   4005   4004   4015     1   112.3500484 533.878400
   4008   4011   4012     1   123.2000528 564.003200
   4008   4011   4013     1   112.7300484 572.371200
   4012   4011   4013     1   122.1000523 635.131200
   4015   4018   4021     1   111.0400475 529.694400
   4018   4021   4022     1   123.2000528 564.003200
   4018   4021   4023     1   112.7300484 572.371200
   4022   4021   4023     1   122.1000523 635.131200
   4026   4029   4032     1   111.5100476 526.347200
   4029   4026   4056     1   107.9700462 569.024000
   4029   4032   4035     1   111.0400475 552.288000
   4032   4035   4036     1   112.3500484 533.878400
   4032   4035   4046     1   112.3500484 533.878400
   4035   4036   4039     1   111.0400475 552.288000
   4035   4046   4049     1   111.0400475 552.288000
   4036   4035   4046     1   112.3500484 533.878400
   4036   4039   4042     1   111.0400475 529.694400
   4039   4042   4043     1   123.2000528 564.003200
   4039   4042   4044     1   112.7300484 572.371200
   4043   4042   4044     1   122.1000523 635.131200
   4046   4049   4052     1   111.0400475 529.694400
   4049   4052   4053     1   123.2000528 564.003200
   4049   4052   4054     1   112.7300484 572.371200
   4053   4052   4054     1   122.1000523 635.131200
   4057   4060   4063     1   111.5100476 526.347200
   4060   4063   4066     1   111.0400475 552.288000
   4060   4057   4087     1   107.9700462 569.024000
   4063   4066   4067     1   112.3500484 533.878400
   4063   4066   4077     1   112.3500484 533.878400
   4066   4067   4070     1   111.0400475 552.288000
   4066   4077   4080     1   111.0400475 552.288000
   4067   4070   4073     1   111.0400475 529.694400
   4067   4066   4077     1   112.3500484 533.878400
   4070   4073   4074     1   123.2000528 564.003200
   4070   4073   4075     1   112.7300484 572.371200
   4074   4073   4075     1   122.1000523 635.131200
   4077   4080   4083     1   111.0400475 529.694400
   4080   4083   4084     1   123.2000528 564.003200
   4080   4083   4085     1   112.7300484 572.371200
   4084   4083   4085     1   122.1000523 635.131200
   4088   4091   4094     1   111.5100476 526.347200
   4091   4088   4118     1   107.9700462 569.024000
   4091   4094   4097     1   111.0400475 552.288000
   4094   4097   4098     1   112.3500484 533.878400
   4094   4097   4108     1   112.3500484 533.878400
   4097   4098   4101     1   111.0400475 552.288000
   4097   4108   4111     1   111.0400475 552.288000
   4098   4097   4108     1   112.3500484 533.878400
   4098   4101   4104     1   111.0400475 529.694400
   4101   4104   4105     1   123.2000528 564.003200
   4101   4104   4106     1   112.7300484 572.371200
   4105   4104   4106     1   122.1000523 635.131200
   4108   4111   4114     1   111.0400475 529.694400
   4111   4114   4115     1   123.2000528 564.003200
   4111   4114   4116     1   112.7300484 572.371200
   4115   4114   4116     1   122.1000523 635.131200
   4119   4122   4125     1   111.5100476 526.347200
   4122   4125   4128     1   111.0400475 552.288000
   4122   4119   4149     1   107.9700462 569.024000
   4125   4128   4129     1   112.3500484 533.878400
   4125   4128   4139     1   112.3500484 533.878400
   4128   4129   4132     1   111.0400475 552.288000
   4128   4139   4142     1   111.0400475 552.288000
   4129   4132   4135     1   111.0400475 529.694400
   4129   4128   4139     1   112.3500484 533.878400
   4132   4135   4136     1   123.2000528 564.003200
   4132   4135   4137     1   112.7300484 572.371200
   4136   4135   4137     1   122.1000523 635.131200
   4139   4142   4145     1   111.0400475 529.694400
   4142   4145   4146     1   123.2000528 564.003200
   4142   4145   4147     1   112.7300484 572.371200
   4146   4145   4147     1   122.1000523 635.131200
   4150   4153   4156     1   111.5100476 526.347200
   4153   4150   4180     1   107.9700462 569.024000
   4153   4156   4159     1   111.0400475 552.288000
   4156   4159   4160     1   112.3500484 533.878400
   4156   4159   4170     1   112.3500484 533.878400
   4159   4160   4163     1   111.0400475 552.288000
   4159   4170   4173     1   111.0400475 552.288000
   4160   4159   4170     1   112.3500484 533.878400
   4160   4163   4166     1   111.0400475 529.694400
   4163   4166   4167     1   123.2000528 564.003200
   4163   4166   4168     1   112.7300484 572.371200
   4167   4166   4168     1   122.1000523 635.131200
   4170   4173   4176     1   111.0400475 529.694400
   4173   4176   4177     1   123.2000528 564.003200
   4173   4176   4178     1   112.7300484 572.371200
   4177   4176   4178     1   122.1000523 635.131200
   4181   4184   4187     1   111.5100476 526.347200
   4184   4187   4190     1   111.0400475 552.288000
   4184   4181   4211     1   107.9700462 569.024000
   4187   4190   4191     1   112.3500484 533.878400
   4187   4190   4201     1   112.3500484 533.878400
   4190   4191   4194     1   111.0400475 552.288000
   4190   4201   4204     1   111.0400475 552.288000
   4191   4194   4197     1   111.0400475 529.694400
   4191   4190   4201     1   112.3500484 533.878400
   4194   4197   4198     1   123.2000528 564.003200
   4194   4197   4199     1   112.7300484 572.371200
   4198   4197   4199     1   122.1000523 635.131200
   4201   4204   4207     1   111.0400475 529.694400
   4204   4207   4208     1   123.2000528 564.003200
   4204   4207   4209     1   112.7300484 572.371200
   4208   4207   4209     1   122.1000523 635.131200
   4212   4215   4218     1   111.5100476 526.347200
   4215   4212   4242     1   107.9700462 569.024000
   4215   4218   4221     1   111.0400475 552.288000
   4218   4221   4222     1   112.3500484 533.878400
   4218   4221   4232     1   112.3500484 533.878400
   4221   4222   4225     1   111.0400475 552.288000
   4221   4232   4235     1   111.0400475 552.288000
   4222   4221   4232     1   112.3500484 533.878400
   4222   4225   4228     1   111.0400475 529.694400
   4225   4228   4229     1   123.2000528 564.003200
   4225   4228   4230     1   112.7300484 572.371200
   4229   4228   4230     1   122.1000523 635.131200
   4232   4235   4238     1   111.0400475 529.694400
   4235   4238   4239     1   123.2000528 564.003200
   4235   4238   4240     1   112.7300484 572.371200
   4239   4238   4240     1   122.1000523 635.131200
   4243   4246   4249     1   111.5100476 526.347200
   4246   4249   4252     1   111.0400475 552.288000
   4246   4243   4273     1   107.9700462 569.024000
   4249   4252   4253     1   112.3500484 533.878400
   4249   4252   4263     1   112.3500484 533.878400
   4252   4253   4256     1   111.0400475 552.288000
   4252   4263   4266     1   111.0400475 552.288000
   4253   4256   4259     1   111.0400475 529.694400
   4253   4252   4263     1   112.3500484 533.878400
   4256   4259   4260     1   123.2000528 564.003200
   4256   4259   4261     1   112.7300484 572.371200
   4260   4259   4261     1   122.1000523 635.131200
   4263   4266   4269     1   111.0400475 529.694400
   4266   4269   4270     1   123.2000528 564.003200
   4266   4269   4271     1   112.7300484 572.371200
   4270   4269   4271     1   122.1000523 635.131200
   4274   4277   4280     1   111.5100476 526.347200
   4277   4274   4304     1   107.9700462 569.024000
   4277   4280   4283     1   111.0400475 552.288000
   4280   4283   4284     1   112.3500484 533.878400
   4280   4283   4294     1   112.3500484 533.878400
   4283   4284   4287     1   111.0400475 552.288000
   4283   4294   4297     1   111.0400475 552.288000
   4284   4283   4294     1   112.3500484 533.878400
   4284   4287   4290     1   111.0400475 529.694400
   4287   4290   4291     1   123.2000528 564.003200
   4287   4290   4292     1   112.7300484 572.371200
   4291   4290   4292     1   122.1000523 635.131200
   4294   4297   4300     1   111.0400475 529.694400
   4297   4300   4301     1   123.2000528 564.003200
   4297   4300   4302     1   112.7300484 572.371200
   4301   4300   4302     1   122.1000523 635.131200
   4305   4308   4311     1   111.5100476 526.347200
   4308   4311   4314     1   111.0400475 552.288000
   4308   4305   4335     1   107.9700462 569.024000
   4311   4314   4315     1   112.3500484 533.878400
   4311   4314   4325     1   112.3500484 533.878400
   4314   4315   4318     1   111.0400475 552.288000
   4314   4325   4328     1   111.0400475 552.288000
   4315   4318   4321     1   111.0400475 529.694400
   4315   4314   4325     1   112.3500484 533.878400
   4318   4321   4322     1   123.2000528 564.003200
   4318   4321   4323     1   112.7300484 572.371200
   4322   4321   4323     1   122.1000523 635.131200
   4325   4328   4331     1   111.0400475 529.694400
   4328   4331   4332     1   123.2000528 564.003200
   4328   4331   4333     1   112.7300484 572.371200
   4332   4331   4333     1   122.1000523 635.131200
   4336   4339   4342     1   111.5100476 526.347200
   4339   4336   4366     1   107.9700462 569.024000
   4339   4342   4345     1   111.0400475 552.288000
   4342   4345   4346     1   112.3500484 533.878400
   4342   4345   4356     1   112.3500484 533.878400
   4345   4346   4349     1   111.0400475 552.288000
   4345   4356   4359     1   111.0400475 552.288000
   4346   4345   4356     1   112.3500484 533.878400
   4346   4349   4352     1   111.0400475 529.694400
   4349   4352   4353     1   123.2000528 564.003200
   4349   4352   4354     1   112.7300484 572.371200
   4353   4352   4354     1   122.1000523 635.131200
   4356   4359   4362     1   111.0400475 529.694400
   4359   4362   4363     1   123.2000528 564.003200
   4359   4362   4364     1   112.7300484 572.371200
   4363   4362   4364     1   122.1000523 635.131200
   4367   4370   4373     1   111.5100476 526.347200
   4370   4373   4376     1   111.0400475 552.288000
   4370   4367   4397     1   107.9700462 569.024000
   4373   4376   4377     1   112.3500484 533.878400
   4373   4376   4387     1   112.3500484 533.878400
   4376   4377   4380     1   111.0400475 552.288000
   4376   4387   4390     1   111.0400475 552.288000
   4377   4380   4383     1   111.0400475 529.694400
   4377   4376   4387     1   112.3500484 533.878400
   4380   4383   4384     1   123.2000528 564.003200
   4380   4383   4385     1   112.7300484 572.371200
   4384   4383   4385     1   122.1000523 635.131200
   4387   4390   4393     1   111.0400475 529.694400
   4390   4393   4394     1   123.2000528 564.003200
   4390   4393   4395     1   112.7300484 572.371200
   4394   4393   4395     1   122.1000523 635.131200
   4398   4401   4404     1   111.5100476 526.347200
   4401   4398   4428     1   107.9700462 569.024000
   4401   4404   4407     1   111.0400475 552.288000
   4404   4407   4408     1   112.3500484 533.878400
   4404   4407   4418     1   112.3500484 533.878400
   4407   4408   4411     1   111.0400475 552.288000
   4407   4418   4421     1   111.0400475 552.288000
   4408   4407   4418     1   112.3500484 533.878400
   4408   4411   4414     1   111.0400475 529.694400
   4411   4414   4415     1   123.2000528 564.003200
   4411   4414   4416     1   112.7300484 572.371200
   4415   4414   4416     1   122.1000523 635.131200
   4418   4421   4424     1   111.0400475 529.694400
   4421   4424   4425     1   123.2000528 564.003200
   4421   4424   4426     1   112.7300484 572.371200
   4425   4424   4426     1   122.1000523 635.131200
   4429   4432   4435     1   111.5100476 526.347200
   4432   4435   4438     1   111.0400475 552.288000
   4432   4429   4459     1   107.9700462 569.024000
   4435   4438   4439     1   112.3500484 533.878400
   4435   4438   4449     1   112.3500484 533.878400
   4438   4439   4442     1   111.0400475 552.288000
   4438   4449   4452     1   111.0400475 552.288000
   4439   4442   4445     1   111.0400475 529.694400
   4439   4438   4449     1   112.3500484 533.878400
   4442   4445   4446     1   123.2000528 564.003200
   4442   4445   4447     1   112.7300484 572.371200
   4446   4445   4447     1   122.1000523 635.131200
   4449   4452   4455     1   111.0400475 529.694400
   4452   4455   4456     1   123.2000528 564.003200
   4452   4455   4457     1   112.7300484 572.371200
   4456   4455   4457     1   122.1000523 635.131200
   4460   4463   4466     1   111.5100476 526.347200
   4463   4460   4490     1   107.9700462 569.024000
   4463   4466   4469     1   111.0400475 552.288000
   4466   4469   4470     1   112.3500484 533.878400
   4466   4469   4480     1   112.3500484 533.878400
   4469   4470   4473     1   111.0400475 552.288000
   4469   4480   4483     1   111.0400475 552.288000
   4470   4469   4480     1   112.3500484 533.878400
   4470   4473   4476     1   111.0400475 529.694400
   4473   4476   4477     1   123.2000528 564.003200
   4473   4476   4478     1   112.7300484 572.371200
   4477   4476   4478     1   122.1000523 635.131200
   4480   4483   4486     1   111.0400475 529.694400
   4483   4486   4487     1   123.2000528 564.003200
   4483   4486   4488     1   112.7300484 572.371200
   4487   4486   4488     1   122.1000523 635.131200
   4491   4494   4497     1   111.5100476 526.347200
   4494   4497   4500     1   111.0400475 552.288000
   4494   4491   4521     1   107.9700462 569.024000
   4497   4500   4501     1   112.3500484 533.878400
   4497   4500   4511     1   112.3500484 533.878400
   4500   4501   4504     1   111.0400475 552.288000
   4500   4511   4514     1   111.0400475 552.288000
   4501   4504   4507     1   111.0400475 529.694400
   4501   4500   4511     1   112.3500484 533.878400
   4504   4507   4508     1   123.2000528 564.003200
   4504   4507   4509     1   112.7300484 572.371200
   4508   4507   4509     1   122.1000523 635.131200
   4511   4514   4517     1   111.0400475 529.694400
   4514   4517   4518     1   123.2000528 564.003200
   4514   4517   4519     1   112.7300484 572.371200
   4518   4517   4519     1   122.1000523 635.131200
   4522   4525   4528     1   111.5100476 526.347200
   4525   4522   4552     1   107.9700462 569.024000
   4525   4528   4531     1   111.0400475 552.288000
   4528   4531   4532     1   112.3500484 533.878400
   4528   4531   4542     1   112.3500484 533.878400
   4531   4532   4535     1   111.0400475 552.288000
   4531   4542   4545     1   111.0400475 552.288000
   4532   4531   4542     1   112.3500484 533.878400
   4532   4535   4538     1   111.0400475 529.694400
   4535   4538   4539     1   123.2000528 564.003200
   4535   4538   4540     1   112.7300484 572.371200
   4539   4538   4540     1   122.1000523 635.131200
   4542   4545   4548     1   111.0400475 529.694400
   4545   4548   4549     1   123.2000528 564.003200
   4545   4548   4550     1   112.7300484 572.371200
   4549   4548   4550     1   122.1000523 635.131200
   4553   4556   4559     1   111.5100476 526.347200
   4556   4559   4562     1   111.0400475 552.288000
   4556   4553   4583     1   107.9700462 569.024000
   4559   4562   4563     1   112.3500484 533.878400
   4559   4562   4573     1   112.3500484 533.878400
   4562   4563   4566     1   111.0400475 552.288000
   4562   4573   4576     1   111.0400475 552.288000
   4563   4566   4569     1   111.0400475 529.694400
   4563   4562   4573     1   112.3500484 533.878400
   4566   4569   4570     1   123.2000528 564.003200
   4566   4569   4571     1   112.7300484 572.371200
   4570   4569   4571     1   122.1000523 635.131200
   4573   4576   4579     1   111.0400475 529.694400
   4576   4579   4580     1   123.2000528 564.003200
   4576   4579   4581     1   112.7300484 572.371200
   4580   4579   4581     1   122.1000523 635.131200
   4584   4587   4590     1   111.5100476 526.347200
   4587   4584   4614     1   107.9700462 569.024000
   4587   4590   4593     1   111.0400475 552.288000
   4590   4593   4594     1   112.3500484 533.878400
   4590   4593   4604     1   112.3500484 533.878400
   4593   4594   4597     1   111.0400475 552.288000
   4593   4604   4607     1   111.0400475 552.288000
   4594   4593   4604     1   112.3500484 533.878400
   4594   4597   4600     1   111.0400475 529.694400
   4597   4600   4601     1   123.2000528 564.003200
   4597   4600   4602     1   112.7300484 572.371200
   4601   4600   4602     1   122.1000523 635.131200
   4604   4607   4610     1   111.0400475 529.694400
   4607   4610   4611     1   123.2000528 564.003200
   4607   4610   4612     1   112.7300484 572.371200
   4611   4610   4612     1   122.1000523 635.131200
   4615   4618   4621     1   111.5100476 526.347200
   4618   4621   4624     1   111.0400475 552.288000
   4618   4615   4645     1   107.9700462 569.024000
   4621   4624   4625     1   112.3500484 533.878400
   4621   4624   4635     1   112.3500484 533.878400
   4624   4625   4628     1   111.0400475 552.288000
   4624   4635   4638     1   111.0400475 552.288000
   4625   4628   4631     1   111.0400475 529.694400
   4625   4624   4635     1   112.3500484 533.878400
   4628   4631   4632     1   123.2000528 564.003200
   4628   4631   4633     1   112.7300484 572.371200
   4632   4631   4633     1   122.1000523 635.131200
   4635   4638   4641     1   111.0400475 529.694400
   4638   4641   4642     1   123.2000528 564.003200
   4638   4641   4643     1   112.7300484 572.371200
   4642   4641   4643     1   122.1000523 635.131200
   4646   4649   4652     1   111.5100476 526.347200
   4649   4646   4676     1   107.9700462 569.024000
   4649   4652   4655     1   111.0400475 552.288000
   4652   4655   4656     1   112.3500484 533.878400
   4652   4655   4666     1   112.3500484 533.878400
   4655   4656   4659     1   111.0400475 552.288000
   4655   4666   4669     1   111.0400475 552.288000
   4656   4655   4666     1   112.3500484 533.878400
   4656   4659   4662     1   111.0400475 529.694400
   4659   4662   4663     1   123.2000528 564.003200
   4659   4662   4664     1   112.7300484 572.371200
   4663   4662   4664     1   122.1000523 635.131200
   4666   4669   4672     1   111.0400475 529.694400
   4669   4672   4673     1   123.2000528 564.003200
   4669   4672   4674     1   112.7300484 572.371200
   4673   4672   4674     1   122.1000523 635.131200
   4677   4680   4683     1   111.5100476 526.347200
   4680   4683   4686     1   111.0400475 552.288000
   4680   4677   4707     1   107.9700462 569.024000
   4683   4686   4687     1   112.3500484 533.878400
   4683   4686   4697     1   112.3500484 533.878400
   4686   4687   4690     1   111.0400475 552.288000
   4686   4697   4700     1   111.0400475 552.288000
   4687   4690   4693     1   111.0400475 529.694400
   4687   4686   4697     1   112.3500484 533.878400
   4690   4693   4694     1   123.2000528 564.003200
   4690   4693   4695     1   112.7300484 572.371200
   4694   4693   4695     1   122.1000523 635.131200
   4697   4700   4703     1   111.0400475 529.694400
   4700   4703   4704     1   123.2000528 564.003200
   4700   4703   4705     1   112.7300484 572.371200
   4704   4703   4705     1   122.1000523 635.131200
   4708   4711   4714     1   111.5100476 526.347200
   4711   4708   4738     1   107.9700462 569.024000
   4711   4714   4717     1   111.0400475 552.288000
   4714   4717   4718     1   112.3500484 533.878400
   4714   4717   4728     1   112.3500484 533.878400
   4717   4718   4721     1   111.0400475 552.288000
   4717   4728   4731     1   111.0400475 552.288000
   4718   4717   4728     1   112.3500484 533.878400
   4718   4721   4724     1   111.0400475 529.694400
   4721   4724   4725     1   123.2000528 564.003200
   4721   4724   4726     1   112.7300484 572.371200
   4725   4724   4726     1   122.1000523 635.131200
   4728   4731   4734     1   111.0400475 529.694400
   4731   4734   4735     1   123.2000528 564.003200
   4731   4734   4736     1   112.7300484 572.371200
   4735   4734   4736     1   122.1000523 635.131200
   4739   4742   4745     1   111.5100476 526.347200
   4742   4745   4748     1   111.0400475 552.288000
   4742   4739   4769     1   107.9700462 569.024000
   4745   4748   4749     1   112.3500484 533.878400
   4745   4748   4759     1   112.3500484 533.878400
   4748   4749   4752     1   111.0400475 552.288000
   4748   4759   4762     1   111.0400475 552.288000
   4749   4752   4755     1   111.0400475 529.694400
   4749   4748   4759     1   112.3500484 533.878400
   4752   4755   4756     1   123.2000528 564.003200
   4752   4755   4757     1   112.7300484 572.371200
   4756   4755   4757     1   122.1000523 635.131200
   4759   4762   4765     1   111.0400475 529.694400
   4762   4765   4766     1   123.2000528 564.003200
   4762   4765   4767     1   112.7300484 572.371200
   4766   4765   4767     1   122.1000523 635.131200
   4770   4773   4776     1   111.5100476 526.347200
   4773   4770   4800     1   107.9700462 569.024000
   4773   4776   4779     1   111.0400475 552.288000
   4776   4779   4780     1   112.3500484 533.878400
   4776   4779   4790     1   112.3500484 533.878400
   4779   4780   4783     1   111.0400475 552.288000
   4779   4790   4793     1   111.0400475 552.288000
   4780   4779   4790     1   112.3500484 533.878400
   4780   4783   4786     1   111.0400475 529.694400
   4783   4786   4787     1   123.2000528 564.003200
   4783   4786   4788     1   112.7300484 572.371200
   4787   4786   4788     1   122.1000523 635.131200
   4790   4793   4796     1   111.0400475 529.694400
   4793   4796   4797     1   123.2000528 564.003200
   4793   4796   4798     1   112.7300484 572.371200
   4797   4796   4798     1   122.1000523 635.131200
   4801   4804   4807     1   111.5100476 526.347200
   4804   4807   4810     1   111.0400475 552.288000
   4804   4801   4831     1   107.9700462 569.024000
   4807   4810   4811     1   112.3500484 533.878400
   4807   4810   4821     1   112.3500484 533.878400
   4810   4811   4814     1   111.0400475 552.288000
   4810   4821   4824     1   111.0400475 552.288000
   4811   4814   4817     1   111.0400475 529.694400
   4811   4810   4821     1   112.3500484 533.878400
   4814   4817   4818     1   123.2000528 564.003200
   4814   4817   4819     1   112.7300484 572.371200
   4818   4817   4819     1   122.1000523 635.131200
   4821   4824   4827     1   111.0400475 529.694400
   4824   4827   4828     1   123.2000528 564.003200
   4824   4827   4829     1   112.7300484 572.371200
   4828   4827   4829     1   122.1000523 635.131200
   4832   4835   4838     1   111.5100476 526.347200
   4835   4832   4862     1   107.9700462 569.024000
   4835   4838   4841     1   111.0400475 552.288000
   4838   4841   4842     1   112.3500484 533.878400
   4838   4841   4852     1   112.3500484 533.878400
   4841   4842   4845     1   111.0400475 552.288000
   4841   4852   4855     1   111.0400475 552.288000
   4842   4841   4852     1   112.3500484 533.878400
   4842   4845   4848     1   111.0400475 529.694400
   4845   4848   4849     1   123.2000528 564.003200
   4845   4848   4850     1   112.7300484 572.371200
   4849   4848   4850     1   122.1000523 635.131200
   4852   4855   4858     1   111.0400475 529.694400
   4855   4858   4859     1   123.2000528 564.003200
   4855   4858   4860     1   112.7300484 572.371200
   4859   4858   4860     1   122.1000523 635.131200
   4863   4866   4869     1   111.5100476 526.347200
   4866   4869   4872     1   111.0400475 552.288000
   4866   4863   4893     1   107.9700462 569.024000
   4869   4872   4873     1   112.3500484 533.878400
   4869   4872   4883     1   112.3500484 533.878400
   4872   4873   4876     1   111.0400475 552.288000
   4872   4883   4886     1   111.0400475 552.288000
   4873   4876   4879     1   111.0400475 529.694400
   4873   4872   4883     1   112.3500484 533.878400
   4876   4879   4880     1   123.2000528 564.003200
   4876   4879   4881     1   112.7300484 572.371200
   4880   4879   4881     1   122.1000523 635.131200
   4883   4886   4889     1   111.0400475 529.694400
   4886   4889   4890     1   123.2000528 564.003200
   4886   4889   4891     1   112.7300484 572.371200
   4890   4889   4891     1   122.1000523 635.131200
   4894   4897   4900     1   111.5100476 526.347200
   4897   4894   4924     1   107.9700462 569.024000
   4897   4900   4903     1   111.0400475 552.288000
   4900   4903   4904     1   112.3500484 533.878400
   4900   4903   4914     1   112.3500484 533.878400
   4903   4904   4907     1   111.0400475 552.288000
   4903   4914   4917     1   111.0400475 552.288000
   4904   4903   4914     1   112.3500484 533.878400
   4904   4907   4910     1   111.0400475 529.694400
   4907   4910   4911     1   123.2000528 564.003200
   4907   4910   4912     1   112.7300484 572.371200
   4911   4910   4912     1   122.1000523 635.131200
   4914   4917   4920     1   111.0400475 529.694400
   4917   4920   4921     1   123.2000528 564.003200
   4917   4920   4922     1   112.7300484 572.371200
   4921   4920   4922     1   122.1000523 635.131200
   4925   4928   4931     1   111.5100476 526.347200
   4928   4931   4934     1   111.0400475 552.288000
   4928   4925   4955     1   107.9700462 569.024000
   4931   4934   4935     1   112.3500484 533.878400
   4931   4934   4945     1   112.3500484 533.878400
   4934   4935   4938     1   111.0400475 552.288000
   4934   4945   4948     1   111.0400475 552.288000
   4935   4938   4941     1   111.0400475 529.694400
   4935   4934   4945     1   112.3500484 533.878400
   4938   4941   4942     1   123.2000528 564.003200
   4938   4941   4943     1   112.7300484 572.371200
   4942   4941   4943     1   122.1000523 635.131200
   4945   4948   4951     1   111.0400475 529.694400
   4948   4951   4952     1   123.2000528 564.003200
   4948   4951   4953     1   112.7300484 572.371200
   4952   4951   4953     1   122.1000523 635.131200
   4956   4959   4962     1   111.5100476 526.347200
   4959   4956   4986     1   107.9700462 569.024000
   4959   4962   4965     1   111.0400475 552.288000
   4962   4965   4966     1   112.3500484 533.878400
   4962   4965   4976     1   112.3500484 533.878400
   4965   4966   4969     1   111.0400475 552.288000
   4965   4976   4979     1   111.0400475 552.288000
   4966   4965   4976     1   112.3500484 533.878400
   4966   4969   4972     1   111.0400475 529.694400
   4969   4972   4973     1   123.2000528 564.003200
   4969   4972   4974     1   112.7300484 572.371200
   4973   4972   4974     1   122.1000523 635.131200
   4976   4979   4982     1   111.0400475 529.694400
   4979   4982   4983     1   123.2000528 564.003200
   4979   4982   4984     1   112.7300484 572.371200
   4983   4982   4984     1   122.1000523 635.131200
   4987   4990   4993     1   111.5100476 526.347200
   4990   4993   4996     1   111.0400475 552.288000
   4990   4987   5017     1   107.9700462 569.024000
   4993   4996   4997     1   112.3500484 533.878400
   4993   4996   5007     1   112.3500484 533.878400
   4996   4997   5000     1   111.0400475 552.288000
   4996   5007   5010     1   111.0400475 552.288000
   4997   5000   5003     1   111.0400475 529.694400
   4997   4996   5007     1   112.3500484 533.878400
   5000   5003   5004     1   123.2000528 564.003200
   5000   5003   5005     1   112.7300484 572.371200
   5004   5003   5005     1   122.1000523 635.131200
   5007   5010   5013     1   111.0400475 529.694400
   5010   5013   5014     1   123.2000528 564.003200
   5010   5013   5015     1   112.7300484 572.371200
   5014   5013   5015     1   122.1000523 635.131200
   5018   5021   5024     1   111.5100476 526.347200
   5021   5018   5048     1   107.9700462 569.024000
   5021   5024   5027     1   111.0400475 552.288000
   5024   5027   5028     1   112.3500484 533.878400
   5024   5027   5038     1   112.3500484 533.878400
   5027   5028   5031     1   111.0400475 552.288000
   5027   5038   5041     1   111.0400475 552.288000
   5028   5027   5038     1   112.3500484 533.878400
   5028   5031   5034     1   111.0400475 529.694400
   5031   5034   5035     1   123.2000528 564.003200
   5031   5034   5036     1   112.7300484 572.371200
   5035   5034   5036     1   122.1000523 635.131200
   5038   5041   5044     1   111.0400475 529.694400
   5041   5044   5045     1   123.2000528 564.003200
   5041   5044   5046     1   112.7300484 572.371200
   5045   5044   5046     1   122.1000523 635.131200
   5049   5052   5055     1   111.5100476 526.347200
   5052   5055   5058     1   111.0400475 552.288000
   5052   5049   5079     1   107.9700462 569.024000
   5055   5058   5059     1   112.3500484 533.878400
   5055   5058   5069     1   112.3500484 533.878400
   5058   5059   5062     1   111.0400475 552.288000
   5058   5069   5072     1   111.0400475 552.288000
   5059   5062   5065     1   111.0400475 529.694400
   5059   5058   5069     1   112.3500484 533.878400
   5062   5065   5066     1   123.2000528 564.003200
   5062   5065   5067     1   112.7300484 572.371200
   5066   5065   5067     1   122.1000523 635.131200
   5069   5072   5075     1   111.0400475 529.694400
   5072   5075   5076     1   123.2000528 564.003200
   5072   5075   5077     1   112.7300484 572.371200
   5076   5075   5077     1   122.1000523 635.131200
   5080   5083   5086     1   111.5100476 526.347200
   5083   5080   5110     1   107.9700462 569.024000
   5083   5086   5089     1   111.0400475 552.288000
   5086   5089   5090     1   112.3500484 533.878400
   5086   5089   5100     1   112.3500484 533.878400
   5089   5090   5093     1   111.0400475 552.288000
   5089   5100   5103     1   111.0400475 552.288000
   5090   5089   5100     1   112.3500484 533.878400
   5090   5093   5096     1   111.0400475 529.694400
   5093   5096   5097     1   123.2000528 564.003200
   5093   5096   5098     1   112.7300484 572.371200
   5097   5096   5098     1   122.1000523 635.131200
   5100   5103   5106     1   111.0400475 529.694400
   5103   5106   5107     1   123.2000528 564.003200
   5103   5106   5108     1   112.7300484 572.371200
   5107   5106   5108     1   122.1000523 635.131200
   5111   5114   5117     1   111.5100476 526.347200
   5114   5117   5120     1   111.0400475 552.288000
   5114   5111   5141     1   107.9700462 569.024000
   5117   5120   5121     1   112.3500484 533.878400
   5117   5120   5131     1   112.3500484 533.878400
   5120   5121   5124     1   111.0400475 552.288000
   5120   5131   5134     1   111.0400475 552.288000
   5121   5124   5127     1   111.0400475 529.694400
   5121   5120   5131     1   112.3500484 533.878400
   5124   5127   5128     1   123.2000528 564.003200
   5124   5127   5129     1   112.7300484 572.371200
   5128   5127   5129     1   122.1000523 635.131200
   5131   5134   5137     1   111.0400475 529.694400
   5134   5137   5138     1   123.2000528 564.003200
   5134   5137   5139     1   112.7300484 572.371200
   5138   5137   5139     1   122.1000523 635.131200
   5142   5145   5148     1   111.5100476 526.347200
   5145   5142   5172     1   107.9700462 569.024000
   5145   5148   5151     1   111.0400475 552.288000
   5148   5151   5152     1   112.3500484 533.878400
   5148   5151   5162     1   112.3500484 533.878400
   5151   5152   5155     1   111.0400475 552.288000
   5151   5162   5165     1   111.0400475 552.288000
   5152   5151   5162     1   112.3500484 533.878400
   5152   5155   5158     1   111.0400475 529.694400
   5155   5158   5159     1   123.2000528 564.003200
   5155   5158   5160     1   112.7300484 572.371200
   5159   5158   5160     1   122.1000523 635.131200
   5162   5165   5168     1   111.0400475 529.694400
   5165   5168   5169     1   123.2000528 564.003200
   5165   5168   5170     1   112.7300484 572.371200
   5169   5168   5170     1   122.1000523 635.131200
   5173   5176   5179     1   111.5100476 526.347200
   5176   5179   5182     1   111.0400475 552.288000
   5176   5173   5203     1   107.9700462 569.024000
   5179   5182   5183     1   112.3500484 533.878400
   5179   5182   5193     1   112.3500484 533.878400
   5182   5183   5186     1   111.0400475 552.288000
   5182   5193   5196     1   111.0400475 552.288000
   5183   5186   5189     1   111.0400475 529.694400
   5183   5182   5193     1   112.3500484 533.878400
   5186   5189   5190     1   123.2000528 564.003200
   5186   5189   5191     1   112.7300484 572.371200
   5190   5189   5191     1   122.1000523 635.131200
   5193   5196   5199     1   111.0400475 529.694400
   5196   5199   5200     1   123.2000528 564.003200
   5196   5199   5201     1   112.7300484 572.371200
   5200   5199   5201     1   122.1000523 635.131200
   5204   5207   5210     1   111.5100476 526.347200
   5207   5204   5234     1   107.9700462 569.024000
   5207   5210   5213     1   111.0400475 552.288000
   5210   5213   5214     1   112.3500484 533.878400
   5210   5213   5224     1   112.3500484 533.878400
   5213   5214   5217     1   111.0400475 552.288000
   5213   5224   5227     1   111.0400475 552.288000
   5214   5213   5224     1   112.3500484 533.878400
   5214   5217   5220     1   111.0400475 529.694400
   5217   5220   5221     1   123.2000528 564.003200
   5217   5220   5222     1   112.7300484 572.371200
   5221   5220   5222     1   122.1000523 635.131200
   5224   5227   5230     1   111.0400475 529.694400
   5227   5230   5231     1   123.2000528 564.003200
   5227   5230   5232     1   112.7300484 572.371200
   5231   5230   5232     1   122.1000523 635.131200
   5235   5238   5241     1   111.5100476 526.347200
   5238   5241   5244     1   111.0400475 552.288000
   5238   5235   5265     1   107.9700462 569.024000
   5241   5244   5245     1   112.3500484 533.878400
   5241   5244   5255     1   112.3500484 533.878400
   5244   5245   5248     1   111.0400475 552.288000
   5244   5255   5258     1   111.0400475 552.288000
   5245   5248   5251     1   111.0400475 529.694400
   5245   5244   5255     1   112.3500484 533.878400
   5248   5251   5252     1   123.2000528 564.003200
   5248   5251   5253     1   112.7300484 572.371200
   5252   5251   5253     1   122.1000523 635.131200
   5255   5258   5261     1   111.0400475 529.694400
   5258   5261   5262     1   123.2000528 564.003200
   5258   5261   5263     1   112.7300484 572.371200
   5262   5261   5263     1   122.1000523 635.131200
   5266   5269   5272     1   111.5100476 526.347200
   5269   5266   5296     1   107.9700462 569.024000
   5269   5272   5275     1   111.0400475 552.288000
   5272   5275   5276     1   112.3500484 533.878400
   5272   5275   5286     1   112.3500484 533.878400
   5275   5276   5279     1   111.0400475 552.288000
   5275   5286   5289     1   111.0400475 552.288000
   5276   5275   5286     1   112.3500484 533.878400
   5276   5279   5282     1   111.0400475 529.694400
   5279   5282   5283     1   123.2000528 564.003200
   5279   5282   5284     1   112.7300484 572.371200
   5283   5282   5284     1   122.1000523 635.131200
   5286   5289   5292     1   111.0400475 529.694400
   5289   5292   5293     1   123.2000528 564.003200
   5289   5292   5294     1   112.7300484 572.371200
   5293   5292   5294     1   122.1000523 635.131200
   5297   5300   5303     1   111.5100476 526.347200
   5300   5303   5306     1   111.0400475 552.288000
   5300   5297   5327     1   107.9700462 569.024000
   5303   5306   5307     1   112.3500484 533.878400
   5303   5306   5317     1   112.3500484 533.878400
   5306   5307   5310     1   111.0400475 552.288000
   5306   5317   5320     1   111.0400475 552.288000
   5307   5310   5313     1   111.0400475 529.694400
   5307   5306   5317     1   112.3500484 533.878400
   5310   5313   5314     1   123.2000528 564.003200
   5310   5313   5315     1   112.7300484 572.371200
   5314   5313   5315     1   122.1000523 635.131200
   5317   5320   5323     1   111.0400475 529.694400
   5320   5323   5324     1   123.2000528 564.003200
   5320   5323   5325     1   112.7300484 572.371200
   5324   5323   5325     1   122.1000523 635.131200
   5328   5331   5334     1   111.5100476 526.347200
   5331   5328   5358     1   107.9700462 569.024000
   5331   5334   5337     1   111.0400475 552.288000
   5334   5337   5338     1   112.3500484 533.878400
   5334   5337   5348     1   112.3500484 533.878400
   5337   5338   5341     1   111.0400475 552.288000
   5337   5348   5351     1   111.0400475 552.288000
   5338   5337   5348     1   112.3500484 533.878400
   5338   5341   5344     1   111.0400475 529.694400
   5341   5344   5345     1   123.2000528 564.003200
   5341   5344   5346     1   112.7300484 572.371200
   5345   5344   5346     1   122.1000523 635.131200
   5348   5351   5354     1   111.0400475 529.694400
   5351   5354   5355     1   123.2000528 564.003200
   5351   5354   5356     1   112.7300484 572.371200
   5355   5354   5356     1   122.1000523 635.131200
   5359   5362   5365     1   111.5100476 526.347200
   5362   5365   5368     1   111.0400475 552.288000
   5362   5359   5389     1   107.9700462 569.024000
   5365   5368   5369     1   112.3500484 533.878400
   5365   5368   5379     1   112.3500484 533.878400
   5368   5369   5372     1   111.0400475 552.288000
   5368   5379   5382     1   111.0400475 552.288000
   5369   5372   5375     1   111.0400475 529.694400
   5369   5368   5379     1   112.3500484 533.878400
   5372   5375   5376     1   123.2000528 564.003200
   5372   5375   5377     1   112.7300484 572.371200
   5376   5375   5377     1   122.1000523 635.131200
   5379   5382   5385     1   111.0400475 529.694400
   5382   5385   5386     1   123.2000528 564.003200
   5382   5385   5387     1   112.7300484 572.371200
   5386   5385   5387     1   122.1000523 635.131200
   5390   5393   5396     1   111.5100476 526.347200
   5393   5390   5420     1   107.9700462 569.024000
   5393   5396   5399     1   111.0400475 552.288000
   5396   5399   5400     1   112.3500484 533.878400
   5396   5399   5410     1   112.3500484 533.878400
   5399   5400   5403     1   111.0400475 552.288000
   5399   5410   5413     1   111.0400475 552.288000
   5400   5399   5410     1   112.3500484 533.878400
   5400   5403   5406     1   111.0400475 529.694400
   5403   5406   5407     1   123.2000528 564.003200
   5403   5406   5408     1   112.7300484 572.371200
   5407   5406   5408     1   122.1000523 635.131200
   5410   5413   5416     1   111.0400475 529.694400
   5413   5416   5417     1   123.2000528 564.003200
   5413   5416   5418     1   112.7300484 572.371200
   5417   5416   5418     1   122.1000523 635.131200
   5421   5424   5427     1   111.5100476 526.347200
   5424   5427   5430     1   111.0400475 552.288000
   5424   5421   5451     1   107.9700462 569.024000
   5427   5430   5431     1   112.3500484 533.878400
   5427   5430   5441     1   112.3500484 533.878400
   5430   5431   5434     1   111.0400475 552.288000
   5430   5441   5444     1   111.0400475 552.288000
   5431   5434   5437     1   111.0400475 529.694400
   5431   5430   5441     1   112.3500484 533.878400
   5434   5437   5438     1   123.2000528 564.003200
   5434   5437   5439     1   112.7300484 572.371200
   5438   5437   5439     1   122.1000523 635.131200
   5441   5444   5447     1   111.0400475 529.694400
   5444   5447   5448     1   123.2000528 564.003200
   5444   5447   5449     1   112.7300484 572.371200
   5448   5447   5449     1   122.1000523 635.131200
   5452   5455   5458     1   111.5100476 526.347200
   5455   5452   5482     1   107.9700462 569.024000
   5455   5458   5461     1   111.0400475 552.288000
   5458   5461   5462     1   112.3500484 533.878400
   5458   5461   5472     1   112.3500484 533.878400
   5461   5462   5465     1   111.0400475 552.288000
   5461   5472   5475     1   111.0400475 552.288000
   5462   5461   5472     1   112.3500484 533.878400
   5462   5465   5468     1   111.0400475 529.694400
   5465   5468   5469     1   123.2000528 564.003200
   5465   5468   5470     1   112.7300484 572.371200
   5469   5468   5470     1   122.1000523 635.131200
   5472   5475   5478     1   111.0400475 529.694400
   5475   5478   5479     1   123.2000528 564.003200
   5475   5478   5480     1   112.7300484 572.371200
   5479   5478   5480     1   122.1000523 635.131200
   5483   5486   5489     1   111.5100476 526.347200
   5486   5489   5492     1   111.0400475 552.288000
   5486   5483   5513     1   107.9700462 569.024000
   5489   5492   5493     1   112.3500484 533.878400
   5489   5492   5503     1   112.3500484 533.878400
   5492   5493   5496     1   111.0400475 552.288000
   5492   5503   5506     1   111.0400475 552.288000
   5493   5496   5499     1   111.0400475 529.694400
   5493   5492   5503     1   112.3500484 533.878400
   5496   5499   5500     1   123.2000528 564.003200
   5496   5499   5501     1   112.7300484 572.371200
   5500   5499   5501     1   122.1000523 635.131200
   5503   5506   5509     1   111.0400475 529.694400
   5506   5509   5510     1   123.2000528 564.003200
   5506   5509   5511     1   112.7300484 572.371200
   5510   5509   5511     1   122.1000523 635.131200
   5514   5517   5520     1   111.5100476 526.347200
   5517   5514   5544     1   107.9700462 569.024000
   5517   5520   5523     1   111.0400475 552.288000
   5520   5523   5524     1   112.3500484 533.878400
   5520   5523   5534     1   112.3500484 533.878400
   5523   5524   5527     1   111.0400475 552.288000
   5523   5534   5537     1   111.0400475 552.288000
   5524   5523   5534     1   112.3500484 533.878400
   5524   5527   5530     1   111.0400475 529.694400
   5527   5530   5531     1   123.2000528 564.003200
   5527   5530   5532     1   112.7300484 572.371200
   5531   5530   5532     1   122.1000523 635.131200
   5534   5537   5540     1   111.0400475 529.694400
   5537   5540   5541     1   123.2000528 564.003200
   5537   5540   5542     1   112.7300484 572.371200
   5541   5540   5542     1   122.1000523 635.131200
   5545   5548   5551     1   111.5100476 526.347200
   5548   5551   5554     1   111.0400475 552.288000
   5548   5545   5575     1   107.9700462 569.024000
   5551   5554   5555     1   112.3500484 533.878400
   5551   5554   5565     1   112.3500484 533.878400
   5554   5555   5558     1   111.0400475 552.288000
   5554   5565   5568     1   111.0400475 552.288000
   5555   5558   5561     1   111.0400475 529.694400
   5555   5554   5565     1   112.3500484 533.878400
   5558   5561   5562     1   123.2000528 564.003200
   5558   5561   5563     1   112.7300484 572.371200
   5562   5561   5563     1   122.1000523 635.131200
   5565   5568   5571     1   111.0400475 529.694400
   5568   5571   5572     1   123.2000528 564.003200
   5568   5571   5573     1   112.7300484 572.371200
   5572   5571   5573     1   122.1000523 635.131200
   5576   5579   5582     1   111.5100476 526.347200
   5579   5576   5606     1   107.9700462 569.024000
   5579   5582   5585     1   111.0400475 552.288000
   5582   5585   5586     1   112.3500484 533.878400
   5582   5585   5596     1   112.3500484 533.878400
   5585   5586   5589     1   111.0400475 552.288000
   5585   5596   5599     1   111.0400475 552.288000
   5586   5585   5596     1   112.3500484 533.878400
   5586   5589   5592     1   111.0400475 529.694400
   5589   5592   5593     1   123.2000528 564.003200
   5589   5592   5594     1   112.7300484 572.371200
   5593   5592   5594     1   122.1000523 635.131200
   5596   5599   5602     1   111.0400475 529.694400
   5599   5602   5603     1   123.2000528 564.003200
   5599   5602   5604     1   112.7300484 572.371200
   5603   5602   5604     1   122.1000523 635.131200
   5607   5610   5613     1   111.5100476 526.347200
   5610   5613   5616     1   111.0400475 552.288000
   5610   5607   5637     1   107.9700462 569.024000
   5613   5616   5617     1   112.3500484 533.878400
   5613   5616   5627     1   112.3500484 533.878400
   5616   5617   5620     1   111.0400475 552.288000
   5616   5627   5630     1   111.0400475 552.288000
   5617   5620   5623     1   111.0400475 529.694400
   5617   5616   5627     1   112.3500484 533.878400
   5620   5623   5624     1   123.2000528 564.003200
   5620   5623   5625     1   112.7300484 572.371200
   5624   5623   5625     1   122.1000523 635.131200
   5627   5630   5633     1   111.0400475 529.694400
   5630   5633   5634     1   123.2000528 564.003200
   5630   5633   5635     1   112.7300484 572.371200
   5634   5633   5635     1   122.1000523 635.131200
   5638   5641   5644     1   111.5100476 526.347200
   5641   5638   5668     1   107.9700462 569.024000
   5641   5644   5647     1   111.0400475 552.288000
   5644   5647   5648     1   112.3500484 533.878400
   5644   5647   5658     1   112.3500484 533.878400
   5647   5648   5651     1   111.0400475 552.288000
   5647   5658   5661     1   111.0400475 552.288000
   5648   5647   5658     1   112.3500484 533.878400
   5648   5651   5654     1   111.0400475 529.694400
   5651   5654   5655     1   123.2000528 564.003200
   5651   5654   5656     1   112.7300484 572.371200
   5655   5654   5656     1   122.1000523 635.131200
   5658   5661   5664     1   111.0400475 529.694400
   5661   5664   5665     1   123.2000528 564.003200
   5661   5664   5666     1   112.7300484 572.371200
   5665   5664   5666     1   122.1000523 635.131200
   5669   5672   5675     1   111.5100476 526.347200
   5672   5675   5678     1   111.0400475 552.288000
   5672   5669   5699     1   107.9700462 569.024000
   5675   5678   5679     1   112.3500484 533.878400
   5675   5678   5689     1   112.3500484 533.878400
   5678   5679   5682     1   111.0400475 552.288000
   5678   5689   5692     1   111.0400475 552.288000
   5679   5682   5685     1   111.0400475 529.694400
   5679   5678   5689     1   112.3500484 533.878400
   5682   5685   5686     1   123.2000528 564.003200
   5682   5685   5687     1   112.7300484 572.371200
   5686   5685   5687     1   122.1000523 635.131200
   5689   5692   5695     1   111.0400475 529.694400
   5692   5695   5696     1   123.2000528 564.003200
   5692   5695   5697     1   112.7300484 572.371200
   5696   5695   5697     1   122.1000523 635.131200
   5700   5703   5706     1   111.5100476 526.347200
   5703   5700   5730     1   107.9700462 569.024000
   5703   5706   5709     1   111.0400475 552.288000
   5706   5709   5710     1   112.3500484 533.878400
   5706   5709   5720     1   112.3500484 533.878400
   5709   5710   5713     1   111.0400475 552.288000
   5709   5720   5723     1   111.0400475 552.288000
   5710   5709   5720     1   112.3500484 533.878400
   5710   5713   5716     1   111.0400475 529.694400
   5713   5716   5717     1   123.2000528 564.003200
   5713   5716   5718     1   112.7300484 572.371200
   5717   5716   5718     1   122.1000523 635.131200
   5720   5723   5726     1   111.0400475 529.694400
   5723   5726   5727     1   123.2000528 564.003200
   5723   5726   5728     1   112.7300484 572.371200
   5727   5726   5728     1   122.1000523 635.131200
   5731   5734   5737     1   111.5100476 526.347200
   5734   5737   5740     1   111.0400475 552.288000
   5734   5731   5761     1   107.9700462 569.024000
   5737   5740   5741     1   112.3500484 533.878400
   5737   5740   5751     1   112.3500484 533.878400
   5740   5741   5744     1   111.0400475 552.288000
   5740   5751   5754     1   111.0400475 552.288000
   5741   5744   5747     1   111.0400475 529.694400
   5741   5740   5751     1   112.3500484 533.878400
   5744   5747   5748     1   123.2000528 564.003200
   5744   5747   5749     1   112.7300484 572.371200
   5748   5747   5749     1   122.1000523 635.131200
   5751   5754   5757     1   111.0400475 529.694400
   5754   5757   5758     1   123.2000528 564.003200
   5754   5757   5759     1   112.7300484 572.371200
   5758   5757   5759     1   122.1000523 635.131200
   5762   5765   5768     1   111.5100476 526.347200
   5765   5762   5792     1   107.9700462 569.024000
   5765   5768   5771     1   111.0400475 552.288000
   5768   5771   5772     1   112.3500484 533.878400
   5768   5771   5782     1   112.3500484 533.878400
   5771   5772   5775     1   111.0400475 552.288000
   5771   5782   5785     1   111.0400475 552.288000
   5772   5771   5782     1   112.3500484 533.878400
   5772   5775   5778     1   111.0400475 529.694400
   5775   5778   5779     1   123.2000528 564.003200
   5775   5778   5780     1   112.7300484 572.371200
   5779   5778   5780     1   122.1000523 635.131200
   5782   5785   5788     1   111.0400475 529.694400
   5785   5788   5789     1   123.2000528 564.003200
   5785   5788   5790     1   112.7300484 572.371200
   5789   5788   5790     1   122.1000523 635.131200
   5793   5796   5799     1   111.5100476 526.347200
   5796   5799   5802     1   111.0400475 552.288000
   5796   5793   5823     1   107.9700462 569.024000
   5799   5802   5803     1   112.3500484 533.878400
   5799   5802   5813     1   112.3500484 533.878400
   5802   5803   5806     1   111.0400475 552.288000
   5802   5813   5816     1   111.0400475 552.288000
   5803   5806   5809     1   111.0400475 529.694400
   5803   5802   5813     1   112.3500484 533.878400
   5806   5809   5810     1   123.2000528 564.003200
   5806   5809   5811     1   112.7300484 572.371200
   5810   5809   5811     1   122.1000523 635.131200
   5813   5816   5819     1   111.0400475 529.694400
   5816   5819   5820     1   123.2000528 564.003200
   5816   5819   5821     1   112.7300484 572.371200
   5820   5819   5821     1   122.1000523 635.131200
   5824   5827   5830     1   111.5100476 526.347200
   5827   5824   5854     1   107.9700462 569.024000
   5827   5830   5833     1   111.0400475 552.288000
   5830   5833   5834     1   112.3500484 533.878400
   5830   5833   5844     1   112.3500484 533.878400
   5833   5834   5837     1   111.0400475 552.288000
   5833   5844   5847     1   111.0400475 552.288000
   5834   5833   5844     1   112.3500484 533.878400
   5834   5837   5840     1   111.0400475 529.694400
   5837   5840   5841     1   123.2000528 564.003200
   5837   5840   5842     1   112.7300484 572.371200
   5841   5840   5842     1   122.1000523 635.131200
   5844   5847   5850     1   111.0400475 529.694400
   5847   5850   5851     1   123.2000528 564.003200
   5847   5850   5852     1   112.7300484 572.371200
   5851   5850   5852     1   122.1000523 635.131200
   5855   5858   5861     1   111.5100476 526.347200
   5858   5861   5864     1   111.0400475 552.288000
   5858   5855   5885     1   107.9700462 569.024000
   5861   5864   5865     1   112.3500484 533.878400
   5861   5864   5875     1   112.3500484 533.878400
   5864   5865   5868     1   111.0400475 552.288000
   5864   5875   5878     1   111.0400475 552.288000
   5865   5868   5871     1   111.0400475 529.694400
   5865   5864   5875     1   112.3500484 533.878400
   5868   5871   5872     1   123.2000528 564.003200
   5868   5871   5873     1   112.7300484 572.371200
   5872   5871   5873     1   122.1000523 635.131200
   5875   5878   5881     1   111.0400475 529.694400
   5878   5881   5882     1   123.2000528 564.003200
   5878   5881   5883     1   112.7300484 572.371200
   5882   5881   5883     1   122.1000523 635.131200
   5886   5889   5892     1   111.5100476 526.347200
   5889   5886   5916     1   107.9700462 569.024000
   5889   5892   5895     1   111.0400475 552.288000
   5892   5895   5896     1   112.3500484 533.878400
   5892   5895   5906     1   112.3500484 533.878400
   5895   5896   5899     1   111.0400475 552.288000
   5895   5906   5909     1   111.0400475 552.288000
   5896   5895   5906     1   112.3500484 533.878400
   5896   5899   5902     1   111.0400475 529.694400
   5899   5902   5903     1   123.2000528 564.003200
   5899   5902   5904     1   112.7300484 572.371200
   5903   5902   5904     1   122.1000523 635.131200
   5906   5909   5912     1   111.0400475 529.694400
   5909   5912   5913     1   123.2000528 564.003200
   5909   5912   5914     1   112.7300484 572.371200
   5913   5912   5914     1   122.1000523 635.131200
   5917   5920   5923     1   111.5100476 526.347200
   5920   5923   5926     1   111.0400475 552.288000
   5920   5917   5947     1   107.9700462 569.024000
   5923   5926   5927     1   112.3500484 533.878400
   5923   5926   5937     1   112.3500484 533.878400
   5926   5927   5930     1   111.0400475 552.288000
   5926   5937   5940     1   111.0400475 552.288000
   5927   5930   5933     1   111.0400475 529.694400
   5927   5926   5937     1   112.3500484 533.878400
   5930   5933   5934     1   123.2000528 564.003200
   5930   5933   5935     1   112.7300484 572.371200
   5934   5933   5935     1   122.1000523 635.131200
   5937   5940   5943     1   111.0400475 529.694400
   5940   5943   5944     1   123.2000528 564.003200
   5940   5943   5945     1   112.7300484 572.371200
   5944   5943   5945     1   122.1000523 635.131200
   5948   5951   5954     1   111.5100476 526.347200
   5951   5948   5978     1   107.9700462 569.024000
   5951   5954   5957     1   111.0400475 552.288000
   5954   5957   5958     1   112.3500484 533.878400
   5954   5957   5968     1   112.3500484 533.878400
   5957   5958   5961     1   111.0400475 552.288000
   5957   5968   5971     1   111.0400475 552.288000
   5958   5957   5968     1   112.3500484 533.878400
   5958   5961   5964     1   111.0400475 529.694400
   5961   5964   5965     1   123.2000528 564.003200
   5961   5964   5966     1   112.7300484 572.371200
   5965   5964   5966     1   122.1000523 635.131200
   5968   5971   5974     1   111.0400475 529.694400
   5971   5974   5975     1   123.2000528 564.003200
   5971   5974   5976     1   112.7300484 572.371200
   5975   5974   5976     1   122.1000523 635.131200
   5979   5982   5985     1   111.5100476 526.347200
   5982   5985   5988     1   111.0400475 552.288000
   5982   5979   6009     1   107.9700462 569.024000
   5985   5988   5989     1   112.3500484 533.878400
   5985   5988   5999     1   112.3500484 533.878400
   5988   5989   5992     1   111.0400475 552.288000
   5988   5999   6002     1   111.0400475 552.288000
   5989   5992   5995     1   111.0400475 529.694400
   5989   5988   5999     1   112.3500484 533.878400
   5992   5995   5996     1   123.2000528 564.003200
   5992   5995   5997     1   112.7300484 572.371200
   5996   5995   5997     1   122.1000523 635.131200
   5999   6002   6005     1   111.0400475 529.694400
   6002   6005   6006     1   123.2000528 564.003200
   6002   6005   6007     1   112.7300484 572.371200
   6006   6005   6007     1   122.1000523 635.131200
   6010   6013   6016     1   111.5100476 526.347200
   6013   6010   6040     1   107.9700462 569.024000
   6013   6016   6019     1   111.0400475 552.288000
   6016   6019   6020     1   112.3500484 533.878400
   6016   6019   6030     1   112.3500484 533.878400
   6019   6020   6023     1   111.0400475 552.288000
   6019   6030   6033     1   111.0400475 552.288000
   6020   6019   6030     1   112.3500484 533.878400
   6020   6023   6026     1   111.0400475 529.694400
   6023   6026   6027     1   123.2000528 564.003200
   6023   6026   6028     1   112.7300484 572.371200
   6027   6026   6028     1   122.1000523 635.131200
   6030   6033   6036     1   111.0400475 529.694400
   6033   6036   6037     1   123.2000528 564.003200
   6033   6036   6038     1   112.7300484 572.371200
   6037   6036   6038     1   122.1000523 635.131200
   6041   6044   6047     1   111.5100476 526.347200
   6044   6047   6050     1   111.0400475 552.288000
   6044   6041   6071     1   107.9700462 569.024000
   6047   6050   6051     1   112.3500484 533.878400
   6047   6050   6061     1   112.3500484 533.878400
   6050   6051   6054     1   111.0400475 552.288000
   6050   6061   6064     1   111.0400475 552.288000
   6051   6054   6057     1   111.0400475 529.694400
   6051   6050   6061     1   112.3500484 533.878400
   6054   6057   6058     1   123.2000528 564.003200
   6054   6057   6059     1   112.7300484 572.371200
   6058   6057   6059     1   122.1000523 635.131200
   6061   6064   6067     1   111.0400475 529.694400
   6064   6067   6068     1   123.2000528 564.003200
   6064   6067   6069     1   112.7300484 572.371200
   6068   6067   6069     1   122.1000523 635.131200
   6072   6075   6078     1   111.5100476 526.347200
   6075   6072   6102     1   107.9700462 569.024000
   6075   6078   6081     1   111.0400475 552.288000
   6078   6081   6082     1   112.3500484 533.878400
   6078   6081   6092     1   112.3500484 533.878400
   6081   6082   6085     1   111.0400475 552.288000
   6081   6092   6095     1   111.0400475 552.288000
   6082   6081   6092     1   112.3500484 533.878400
   6082   6085   6088     1   111.0400475 529.694400
   6085   6088   6089     1   123.2000528 564.003200
   6085   6088   6090     1   112.7300484 572.371200
   6089   6088   6090     1   122.1000523 635.131200
   6092   6095   6098     1   111.0400475 529.694400
   6095   6098   6099     1   123.2000528 564.003200
   6095   6098   6100     1   112.7300484 572.371200
   6099   6098   6100     1   122.1000523 635.131200
   6103   6106   6109     1   111.5100476 526.347200
   6106   6109   6112     1   111.0400475 552.288000
   6106   6103   6133     1   107.9700462 569.024000
   6109   6112   6113     1   112.3500484 533.878400
   6109   6112   6123     1   112.3500484 533.878400
   6112   6113   6116     1   111.0400475 552.288000
   6112   6123   6126     1   111.0400475 552.288000
   6113   6116   6119     1   111.0400475 529.694400
   6113   6112   6123     1   112.3500484 533.878400
   6116   6119   6120     1   123.2000528 564.003200
   6116   6119   6121     1   112.7300484 572.371200
   6120   6119   6121     1   122.1000523 635.131200
   6123   6126   6129     1   111.0400475 529.694400
   6126   6129   6130     1   123.2000528 564.003200
   6126   6129   6131     1   112.7300484 572.371200
   6130   6129   6131     1   122.1000523 635.131200
   6134   6137   6140     1   111.5100476 526.347200
   6137   6134   6164     1   107.9700462 569.024000
   6137   6140   6143     1   111.0400475 552.288000
   6140   6143   6144     1   112.3500484 533.878400
   6140   6143   6154     1   112.3500484 533.878400
   6143   6144   6147     1   111.0400475 552.288000
   6143   6154   6157     1   111.0400475 552.288000
   6144   6143   6154     1   112.3500484 533.878400
   6144   6147   6150     1   111.0400475 529.694400
   6147   6150   6151     1   123.2000528 564.003200
   6147   6150   6152     1   112.7300484 572.371200
   6151   6150   6152     1   122.1000523 635.131200
   6154   6157   6160     1   111.0400475 529.694400
   6157   6160   6161     1   123.2000528 564.003200
   6157   6160   6162     1   112.7300484 572.371200
   6161   6160   6162     1   122.1000523 635.131200
   6165   6168   6171     1   111.5100476 526.347200
   6168   6171   6174     1   111.0400475 552.288000
   6168   6165   6195     1   107.9700462 569.024000
   6171   6174   6175     1   112.3500484 533.878400
   6171   6174   6185     1   112.3500484 533.878400
   6174   6175   6178     1   111.0400475 552.288000
   6174   6185   6188     1   111.0400475 552.288000
   6175   6178   6181     1   111.0400475 529.694400
   6175   6174   6185     1   112.3500484 533.878400
   6178   6181   6182     1   123.2000528 564.003200
   6178   6181   6183     1   112.7300484 572.371200
   6182   6181   6183     1   122.1000523 635.131200
   6185   6188   6191     1   111.0400475 529.694400
   6188   6191   6192     1   123.2000528 564.003200
   6188   6191   6193     1   112.7300484 572.371200
   6192   6191   6193     1   122.1000523 635.131200
   6196   6199   6202     1   111.5100476 526.347200
   6199   6196   6226     1   107.9700462 569.024000
   6199   6202   6205     1   111.0400475 552.288000
   6202   6205   6206     1   112.3500484 533.878400
   6202   6205   6216     1   112.3500484 533.878400
   6205   6206   6209     1   111.0400475 552.288000
   6205   6216   6219     1   111.0400475 552.288000
   6206   6205   6216     1   112.3500484 533.878400
   6206   6209   6212     1   111.0400475 529.694400
   6209   6212   6213     1   123.2000528 564.003200
   6209   6212   6214     1   112.7300484 572.371200
   6213   6212   6214     1   122.1000523 635.131200
   6216   6219   6222     1   111.0400475 529.694400
   6219   6222   6223     1   123.2000528 564.003200
   6219   6222   6224     1   112.7300484 572.371200
   6223   6222   6224     1   122.1000523 635.131200
   6227   6230   6233     1   111.5100476 526.347200
   6230   6233   6236     1   111.0400475 552.288000
   6230   6227   6257     1   107.9700462 569.024000
   6233   6236   6237     1   112.3500484 533.878400
   6233   6236   6247     1   112.3500484 533.878400
   6236   6237   6240     1   111.0400475 552.288000
   6236   6247   6250     1   111.0400475 552.288000
   6237   6240   6243     1   111.0400475 529.694400
   6237   6236   6247     1   112.3500484 533.878400
   6240   6243   6244     1   123.2000528 564.003200
   6240   6243   6245     1   112.7300484 572.371200
   6244   6243   6245     1   122.1000523 635.131200
   6247   6250   6253     1   111.0400475 529.694400
   6250   6253   6254     1   123.2000528 564.003200
   6250   6253   6255     1   112.7300484 572.371200
   6254   6253   6255     1   122.1000523 635.131200
   6258   6261   6264     1   111.5100476 526.347200
   6261   6258   6288     1   107.9700462 569.024000
   6261   6264   6267     1   111.0400475 552.288000
   6264   6267   6268     1   112.3500484 533.878400
   6264   6267   6278     1   112.3500484 533.878400
   6267   6268   6271     1   111.0400475 552.288000
   6267   6278   6281     1   111.0400475 552.288000
   6268   6267   6278     1   112.3500484 533.878400
   6268   6271   6274     1   111.0400475 529.694400
   6271   6274   6275     1   123.2000528 564.003200
   6271   6274   6276     1   112.7300484 572.371200
   6275   6274   6276     1   122.1000523 635.131200
   6278   6281   6284     1   111.0400475 529.694400
   6281   6284   6285     1   123.2000528 564.003200
   6281   6284   6286     1   112.7300484 572.371200
   6285   6284   6286     1   122.1000523 635.131200
   6289   6292   6295     1   111.5100476 526.347200
   6292   6295   6298     1   111.0400475 552.288000
   6292   6289   6319     1   107.9700462 569.024000
   6295   6298   6299     1   112.3500484 533.878400
   6295   6298   6309     1   112.3500484 533.878400
   6298   6299   6302     1   111.0400475 552.288000
   6298   6309   6312     1   111.0400475 552.288000
   6299   6302   6305     1   111.0400475 529.694400
   6299   6298   6309     1   112.3500484 533.878400
   6302   6305   6306     1   123.2000528 564.003200
   6302   6305   6307     1   112.7300484 572.371200
   6306   6305   6307     1   122.1000523 635.131200
   6309   6312   6315     1   111.0400475 529.694400
   6312   6315   6316     1   123.2000528 564.003200
   6312   6315   6317     1   112.7300484 572.371200
   6316   6315   6317     1   122.1000523 635.131200
   6320   6323   6326     1   111.5100476 526.347200
   6323   6320   6350     1   107.9700462 569.024000
   6323   6326   6329     1   111.0400475 552.288000
   6326   6329   6330     1   112.3500484 533.878400
   6326   6329   6340     1   112.3500484 533.878400
   6329   6330   6333     1   111.0400475 552.288000
   6329   6340   6343     1   111.0400475 552.288000
   6330   6329   6340     1   112.3500484 533.878400
   6330   6333   6336     1   111.0400475 529.694400
   6333   6336   6337     1   123.2000528 564.003200
   6333   6336   6338     1   112.7300484 572.371200
   6337   6336   6338     1   122.1000523 635.131200
   6340   6343   6346     1   111.0400475 529.694400
   6343   6346   6347     1   123.2000528 564.003200
   6343   6346   6348     1   112.7300484 572.371200
   6347   6346   6348     1   122.1000523 635.131200
   6351   6354   6357     1   111.5100476 526.347200
   6354   6357   6360     1   111.0400475 552.288000
   6354   6351   6381     1   107.9700462 569.024000
   6357   6360   6361     1   112.3500484 533.878400
   6357   6360   6371     1   112.3500484 533.878400
   6360   6361   6364     1   111.0400475 552.288000
   6360   6371   6374     1   111.0400475 552.288000
   6361   6364   6367     1   111.0400475 529.694400
   6361   6360   6371     1   112.3500484 533.878400
   6364   6367   6368     1   123.2000528 564.003200
   6364   6367   6369     1   112.7300484 572.371200
   6368   6367   6369     1   122.1000523 635.131200
   6371   6374   6377     1   111.0400475 529.694400
   6374   6377   6378     1   123.2000528 564.003200
   6374   6377   6379     1   112.7300484 572.371200
   6378   6377   6379     1   122.1000523 635.131200
   6382   6385   6388     1   111.5100476 526.347200
   6385   6382   6412     1   107.9700462 569.024000
   6385   6388   6391     1   111.0400475 552.288000
   6388   6391   6392     1   112.3500484 533.878400
   6388   6391   6402     1   112.3500484 533.878400
   6391   6392   6395     1   111.0400475 552.288000
   6391   6402   6405     1   111.0400475 552.288000
   6392   6391   6402     1   112.3500484 533.878400
   6392   6395   6398     1   111.0400475 529.694400
   6395   6398   6399     1   123.2000528 564.003200
   6395   6398   6400     1   112.7300484 572.371200
   6399   6398   6400     1   122.1000523 635.131200
   6402   6405   6408     1   111.0400475 529.694400
   6405   6408   6409     1   123.2000528 564.003200
   6405   6408   6410     1   112.7300484 572.371200
   6409   6408   6410     1   122.1000523 635.131200
   6413   6416   6419     1   111.5100476 526.347200
   6416   6419   6422     1   111.0400475 552.288000
   6416   6413   6443     1   107.9700462 569.024000
   6419   6422   6423     1   112.3500484 533.878400
   6419   6422   6433     1   112.3500484 533.878400
   6422   6423   6426     1   111.0400475 552.288000
   6422   6433   6436     1   111.0400475 552.288000
   6423   6426   6429     1   111.0400475 529.694400
   6423   6422   6433     1   112.3500484 533.878400
   6426   6429   6430     1   123.2000528 564.003200
   6426   6429   6431     1   112.7300484 572.371200
   6430   6429   6431     1   122.1000523 635.131200
   6433   6436   6439     1   111.0400475 529.694400
   6436   6439   6440     1   123.2000528 564.003200
   6436   6439   6441     1   112.7300484 572.371200
   6440   6439   6441     1   122.1000523 635.131200
   6444   6447   6450     1   111.5100476 526.347200
   6447   6444   6474     1   107.9700462 569.024000
   6447   6450   6453     1   111.0400475 552.288000
   6450   6453   6454     1   112.3500484 533.878400
   6450   6453   6464     1   112.3500484 533.878400
   6453   6454   6457     1   111.0400475 552.288000
   6453   6464   6467     1   111.0400475 552.288000
   6454   6453   6464     1   112.3500484 533.878400
   6454   6457   6460     1   111.0400475 529.694400
   6457   6460   6461     1   123.2000528 564.003200
   6457   6460   6462     1   112.7300484 572.371200
   6461   6460   6462     1   122.1000523 635.131200
   6464   6467   6470     1   111.0400475 529.694400
   6467   6470   6471     1   123.2000528 564.003200
   6467   6470   6472     1   112.7300484 572.371200
   6471   6470   6472     1   122.1000523 635.131200
   6475   6478   6481     1   111.5100476 526.347200
   6478   6481   6484     1   111.0400475 552.288000
   6478   6475   6505     1   107.9700462 569.024000
   6481   6484   6485     1   112.3500484 533.878400
   6481   6484   6495     1   112.3500484 533.878400
   6484   6485   6488     1   111.0400475 552.288000
   6484   6495   6498     1   111.0400475 552.288000
   6485   6488   6491     1   111.0400475 529.694400
   6485   6484   6495     1   112.3500484 533.878400
   6488   6491   6492     1   123.2000528 564.003200
   6488   6491   6493     1   112.7300484 572.371200
   6492   6491   6493     1   122.1000523 635.131200
   6495   6498   6501     1   111.0400475 529.694400
   6498   6501   6502     1   123.2000528 564.003200
   6498   6501   6503     1   112.7300484 572.371200
   6502   6501   6503     1   122.1000523 635.131200
   6506   6509   6512     1   111.5100476 526.347200
   6509   6506   6536     1   107.9700462 569.024000
   6509   6512   6515     1   111.0400475 552.288000
   6512   6515   6516     1   112.3500484 533.878400
   6512   6515   6526     1   112.3500484 533.878400
   6515   6516   6519     1   111.0400475 552.288000
   6515   6526   6529     1   111.0400475 552.288000
   6516   6515   6526     1   112.3500484 533.878400
   6516   6519   6522     1   111.0400475 529.694400
   6519   6522   6523     1   123.2000528 564.003200
   6519   6522   6524     1   112.7300484 572.371200
   6523   6522   6524     1   122.1000523 635.131200
   6526   6529   6532     1   111.0400475 529.694400
   6529   6532   6533     1   123.2000528 564.003200
   6529   6532   6534     1   112.7300484 572.371200
   6533   6532   6534     1   122.1000523 635.131200
   6537   6540   6543     1   111.5100476 526.347200
   6540   6543   6546     1   111.0400475 552.288000
   6540   6537   6567     1   107.9700462 569.024000
   6543   6546   6547     1   112.3500484 533.878400
   6543   6546   6557     1   112.3500484 533.878400
   6546   6547   6550     1   111.0400475 552.288000
   6546   6557   6560     1   111.0400475 552.288000
   6547   6550   6553     1   111.0400475 529.694400
   6547   6546   6557     1   112.3500484 533.878400
   6550   6553   6554     1   123.2000528 564.003200
   6550   6553   6555     1   112.7300484 572.371200
   6554   6553   6555     1   122.1000523 635.131200
   6557   6560   6563     1   111.0400475 529.694400
   6560   6563   6564     1   123.2000528 564.003200
   6560   6563   6565     1   112.7300484 572.371200
   6564   6563   6565     1   122.1000523 635.131200
   6568   6571   6574     1   111.5100476 526.347200
   6571   6568   6598     1   107.9700462 569.024000
   6571   6574   6577     1   111.0400475 552.288000
   6574   6577   6578     1   112.3500484 533.878400
   6574   6577   6588     1   112.3500484 533.878400
   6577   6578   6581     1   111.0400475 552.288000
   6577   6588   6591     1   111.0400475 552.288000
   6578   6577   6588     1   112.3500484 533.878400
   6578   6581   6584     1   111.0400475 529.694400
   6581   6584   6585     1   123.2000528 564.003200
   6581   6584   6586     1   112.7300484 572.371200
   6585   6584   6586     1   122.1000523 635.131200
   6588   6591   6594     1   111.0400475 529.694400
   6591   6594   6595     1   123.2000528 564.003200
   6591   6594   6596     1   112.7300484 572.371200
   6595   6594   6596     1   122.1000523 635.131200
   6599   6602   6605     1   111.5100476 526.347200
   6602   6605   6608     1   111.0400475 552.288000
   6602   6599   6629     1   107.9700462 569.024000
   6605   6608   6609     1   112.3500484 533.878400
   6605   6608   6619     1   112.3500484 533.878400
   6608   6609   6612     1   111.0400475 552.288000
   6608   6619   6622     1   111.0400475 552.288000
   6609   6612   6615     1   111.0400475 529.694400
   6609   6608   6619     1   112.3500484 533.878400
   6612   6615   6616     1   123.2000528 564.003200
   6612   6615   6617     1   112.7300484 572.371200
   6616   6615   6617     1   122.1000523 635.131200
   6619   6622   6625     1   111.0400475 529.694400
   6622   6625   6626     1   123.2000528 564.003200
   6622   6625   6627     1   112.7300484 572.371200
   6626   6625   6627     1   122.1000523 635.131200
   6630   6633   6636     1   111.5100476 526.347200
   6633   6630   6660     1   107.9700462 569.024000
   6633   6636   6639     1   111.0400475 552.288000
   6636   6639   6640     1   112.3500484 533.878400
   6636   6639   6650     1   112.3500484 533.878400
   6639   6640   6643     1   111.0400475 552.288000
   6639   6650   6653     1   111.0400475 552.288000
   6640   6639   6650     1   112.3500484 533.878400
   6640   6643   6646     1   111.0400475 529.694400
   6643   6646   6647     1   123.2000528 564.003200
   6643   6646   6648     1   112.7300484 572.371200
   6647   6646   6648     1   122.1000523 635.131200
   6650   6653   6656     1   111.0400475 529.694400
   6653   6656   6657     1   123.2000528 564.003200
   6653   6656   6658     1   112.7300484 572.371200
   6657   6656   6658     1   122.1000523 635.131200
   6661   6664   6667     1   111.5100476 526.347200
   6664   6667   6670     1   111.0400475 552.288000
   6664   6661   6691     1   107.9700462 569.024000
   6667   6670   6671     1   112.3500484 533.878400
   6667   6670   6681     1   112.3500484 533.878400
   6670   6671   6674     1   111.0400475 552.288000
   6670   6681   6684     1   111.0400475 552.288000
   6671   6674   6677     1   111.0400475 529.694400
   6671   6670   6681     1   112.3500484 533.878400
   6674   6677   6678     1   123.2000528 564.003200
   6674   6677   6679     1   112.7300484 572.371200
   6678   6677   6679     1   122.1000523 635.131200
   6681   6684   6687     1   111.0400475 529.694400
   6684   6687   6688     1   123.2000528 564.003200
   6684   6687   6689     1   112.7300484 572.371200
   6688   6687   6689     1   122.1000523 635.131200
   6692   6695   6698     1   111.5100476 526.347200
   6695   6692   6722     1   107.9700462 569.024000
   6695   6698   6701     1   111.0400475 552.288000
   6698   6701   6702     1   112.3500484 533.878400
   6698   6701   6712     1   112.3500484 533.878400
   6701   6702   6705     1   111.0400475 552.288000
   6701   6712   6715     1   111.0400475 552.288000
   6702   6701   6712     1   112.3500484 533.878400
   6702   6705   6708     1   111.0400475 529.694400
   6705   6708   6709     1   123.2000528 564.003200
   6705   6708   6710     1   112.7300484 572.371200
   6709   6708   6710     1   122.1000523 635.131200
   6712   6715   6718     1   111.0400475 529.694400
   6715   6718   6719     1   123.2000528 564.003200
   6715   6718   6720     1   112.7300484 572.371200
   6719   6718   6720     1   122.1000523 635.131200
   6723   6726   6729     1   111.5100476 526.347200
   6726   6729   6732     1   111.0400475 552.288000
   6726   6723   6753     1   107.9700462 569.024000
   6729   6732   6733     1   112.3500484 533.878400
   6729   6732   6743     1   112.3500484 533.878400
   6732   6733   6736     1   111.0400475 552.288000
   6732   6743   6746     1   111.0400475 552.288000
   6733   6736   6739     1   111.0400475 529.694400
   6733   6732   6743     1   112.3500484 533.878400
   6736   6739   6740     1   123.2000528 564.003200
   6736   6739   6741     1   112.7300484 572.371200
   6740   6739   6741     1   122.1000523 635.131200
   6743   6746   6749     1   111.0400475 529.694400
   6746   6749   6750     1   123.2000528 564.003200
   6746   6749   6751     1   112.7300484 572.371200
   6750   6749   6751     1   122.1000523 635.131200
   6754   6757   6760     1   111.5100476 526.347200
   6757   6754   6784     1   107.9700462 569.024000
   6757   6760   6763     1   111.0400475 552.288000
   6760   6763   6764     1   112.3500484 533.878400
   6760   6763   6774     1   112.3500484 533.878400
   6763   6764   6767     1   111.0400475 552.288000
   6763   6774   6777     1   111.0400475 552.288000
   6764   6763   6774     1   112.3500484 533.878400
   6764   6767   6770     1   111.0400475 529.694400
   6767   6770   6771     1   123.2000528 564.003200
   6767   6770   6772     1   112.7300484 572.371200
   6771   6770   6772     1   122.1000523 635.131200
   6774   6777   6780     1   111.0400475 529.694400
   6777   6780   6781     1   123.2000528 564.003200
   6777   6780   6782     1   112.7300484 572.371200
   6781   6780   6782     1   122.1000523 635.131200
   6785   6788   6791     1   111.5100476 526.347200
   6788   6791   6794     1   111.0400475 552.288000
   6788   6785   6815     1   107.9700462 569.024000
   6791   6794   6795     1   112.3500484 533.878400
   6791   6794   6805     1   112.3500484 533.878400
   6794   6795   6798     1   111.0400475 552.288000
   6794   6805   6808     1   111.0400475 552.288000
   6795   6798   6801     1   111.0400475 529.694400
   6795   6794   6805     1   112.3500484 533.878400
   6798   6801   6802     1   123.2000528 564.003200
   6798   6801   6803     1   112.7300484 572.371200
   6802   6801   6803     1   122.1000523 635.131200
   6805   6808   6811     1   111.0400475 529.694400
   6808   6811   6812     1   123.2000528 564.003200
   6808   6811   6813     1   112.7300484 572.371200
   6812   6811   6813     1   122.1000523 635.131200
   6816   6819   6822     1   111.5100476 526.347200
   6819   6816   6846     1   107.9700462 569.024000
   6819   6822   6825     1   111.0400475 552.288000
   6822   6825   6826     1   112.3500484 533.878400
   6822   6825   6836     1   112.3500484 533.878400
   6825   6826   6829     1   111.0400475 552.288000
   6825   6836   6839     1   111.0400475 552.288000
   6826   6825   6836     1   112.3500484 533.878400
   6826   6829   6832     1   111.0400475 529.694400
   6829   6832   6833     1   123.2000528 564.003200
   6829   6832   6834     1   112.7300484 572.371200
   6833   6832   6834     1   122.1000523 635.131200
   6836   6839   6842     1   111.0400475 529.694400
   6839   6842   6843     1   123.2000528 564.003200
   6839   6842   6844     1   112.7300484 572.371200
   6843   6842   6844     1   122.1000523 635.131200
   6847   6850   6853     1   111.5100476 526.347200
   6850   6853   6856     1   111.0400475 552.288000
   6850   6847   6877     1   107.9700462 569.024000
   6853   6856   6857     1   112.3500484 533.878400
   6853   6856   6867     1   112.3500484 533.878400
   6856   6857   6860     1   111.0400475 552.288000
   6856   6867   6870     1   111.0400475 552.288000
   6857   6860   6863     1   111.0400475 529.694400
   6857   6856   6867     1   112.3500484 533.878400
   6860   6863   6864     1   123.2000528 564.003200
   6860   6863   6865     1   112.7300484 572.371200
   6864   6863   6865     1   122.1000523 635.131200
   6867   6870   6873     1   111.0400475 529.694400
   6870   6873   6874     1   123.2000528 564.003200
   6870   6873   6875     1   112.7300484 572.371200
   6874   6873   6875     1   122.1000523 635.131200
   6878   6881   6884     1   111.5100476 526.347200
   6881   6878   6908     1   107.9700462 569.024000
   6881   6884   6887     1   111.0400475 552.288000
   6884   6887   6888     1   112.3500484 533.878400
   6884   6887   6898     1   112.3500484 533.878400
   6887   6888   6891     1   111.0400475 552.288000
   6887   6898   6901     1   111.0400475 552.288000
   6888   6887   6898     1   112.3500484 533.878400
   6888   6891   6894     1   111.0400475 529.694400
   6891   6894   6895     1   123.2000528 564.003200
   6891   6894   6896     1   112.7300484 572.371200
   6895   6894   6896     1   122.1000523 635.131200
   6898   6901   6904     1   111.0400475 529.694400
   6901   6904   6905     1   123.2000528 564.003200
   6901   6904   6906     1   112.7300484 572.371200
   6905   6904   6906     1   122.1000523 635.131200
   6909   6912   6915     1   111.5100476 526.347200
   6912   6915   6918     1   111.0400475 552.288000
   6912   6909   6939     1   107.9700462 569.024000
   6915   6918   6919     1   112.3500484 533.878400
   6915   6918   6929     1   112.3500484 533.878400
   6918   6919   6922     1   111.0400475 552.288000
   6918   6929   6932     1   111.0400475 552.288000
   6919   6922   6925     1   111.0400475 529.694400
   6919   6918   6929     1   112.3500484 533.878400
   6922   6925   6926     1   123.2000528 564.003200
   6922   6925   6927     1   112.7300484 572.371200
   6926   6925   6927     1   122.1000523 635.131200
   6929   6932   6935     1   111.0400475 529.694400
   6932   6935   6936     1   123.2000528 564.003200
   6932   6935   6937     1   112.7300484 572.371200
   6936   6935   6937     1   122.1000523 635.131200
   6940   6943   6946     1   111.5100476 526.347200
   6943   6940   6970     1   107.9700462 569.024000
   6943   6946   6949     1   111.0400475 552.288000
   6946   6949   6950     1   112.3500484 533.878400
   6946   6949   6960     1   112.3500484 533.878400
   6949   6950   6953     1   111.0400475 552.288000
   6949   6960   6963     1   111.0400475 552.288000
   6950   6949   6960     1   112.3500484 533.878400
   6950   6953   6956     1   111.0400475 529.694400
   6953   6956   6957     1   123.2000528 564.003200
   6953   6956   6958     1   112.7300484 572.371200
   6957   6956   6958     1   122.1000523 635.131200
   6960   6963   6966     1   111.0400475 529.694400
   6963   6966   6967     1   123.2000528 564.003200
   6963   6966   6968     1   112.7300484 572.371200
   6967   6966   6968     1   122.1000523 635.131200
   6971   6974   6977     1   111.5100476 526.347200
   6974   6977   6980     1   111.0400475 552.288000
   6974   6971   7001     1   107.9700462 569.024000
   6977   6980   6981     1   112.3500484 533.878400
   6977   6980   6991     1   112.3500484 533.878400
   6980   6981   6984     1   111.0400475 552.288000
   6980   6991   6994     1   111.0400475 552.288000
   6981   6984   6987     1   111.0400475 529.694400
   6981   6980   6991     1   112.3500484 533.878400
   6984   6987   6988     1   123.2000528 564.003200
   6984   6987   6989     1   112.7300484 572.371200
   6988   6987   6989     1   122.1000523 635.131200
   6991   6994   6997     1   111.0400475 529.694400
   6994   6997   6998     1   123.2000528 564.003200
   6994   6997   6999     1   112.7300484 572.371200
   6998   6997   6999     1   122.1000523 635.131200
   7002   7005   7008     1   111.5100476 526.347200
   7005   7002   7032     1   107.9700462 569.024000
   7005   7008   7011     1   111.0400475 552.288000
   7008   7011   7012     1   112.3500484 533.878400
   7008   7011   7022     1   112.3500484 533.878400
   7011   7012   7015     1   111.0400475 552.288000
   7011   7022   7025     1   111.0400475 552.288000
   7012   7011   7022     1   112.3500484 533.878400
   7012   7015   7018     1   111.0400475 529.694400
   7015   7018   7019     1   123.2000528 564.003200
   7015   7018   7020     1   112.7300484 572.371200
   7019   7018   7020     1   122.1000523 635.131200
   7022   7025   7028     1   111.0400475 529.694400
   7025   7028   7029     1   123.2000528 564.003200
   7025   7028   7030     1   112.7300484 572.371200
   7029   7028   7030     1   122.1000523 635.131200
   7033   7036   7039     1   111.5100476 526.347200
   7036   7039   7042     1   111.0400475 552.288000
   7036   7033   7063     1   107.9700462 569.024000
   7039   7042   7043     1   112.3500484 533.878400
   7039   7042   7053     1   112.3500484 533.878400
   7042   7043   7046     1   111.0400475 552.288000
   7042   7053   7056     1   111.0400475 552.288000
   7043   7046   7049     1   111.0400475 529.694400
   7043   7042   7053     1   112.3500484 533.878400
   7046   7049   7050     1   123.2000528 564.003200
   7046   7049   7051     1   112.7300484 572.371200
   7050   7049   7051     1   122.1000523 635.131200
   7053   7056   7059     1   111.0400475 529.694400
   7056   7059   7060     1   123.2000528 564.003200
   7056   7059   7061     1   112.7300484 572.371200
   7060   7059   7061     1   122.1000523 635.131200
   7064   7067   7070     1   111.5100476 526.347200
   7067   7064   7094     1   107.9700462 569.024000
   7067   7070   7073     1   111.0400475 552.288000
   7070   7073   7074     1   112.3500484 533.878400
   7070   7073   7084     1   112.3500484 533.878400
   7073   7074   7077     1   111.0400475 552.288000
   7073   7084   7087     1   111.0400475 552.288000
   7074   7073   7084     1   112.3500484 533.878400
   7074   7077   7080     1   111.0400475 529.694400
   7077   7080   7081     1   123.2000528 564.003200
   7077   7080   7082     1   112.7300484 572.371200
   7081   7080   7082     1   122.1000523 635.131200
   7084   7087   7090     1   111.0400475 529.694400
   7087   7090   7091     1   123.2000528 564.003200
   7087   7090   7092     1   112.7300484 572.371200
   7091   7090   7092     1   122.1000523 635.131200
   7095   7098   7101     1   111.5100476 526.347200
   7098   7101   7104     1   111.0400475 552.288000
   7098   7095   7125     1   107.9700462 569.024000
   7101   7104   7105     1   112.3500484 533.878400
   7101   7104   7115     1   112.3500484 533.878400
   7104   7105   7108     1   111.0400475 552.288000
   7104   7115   7118     1   111.0400475 552.288000
   7105   7108   7111     1   111.0400475 529.694400
   7105   7104   7115     1   112.3500484 533.878400
   7108   7111   7112     1   123.2000528 564.003200
   7108   7111   7113     1   112.7300484 572.371200
   7112   7111   7113     1   122.1000523 635.131200
   7115   7118   7121     1   111.0400475 529.694400
   7118   7121   7122     1   123.2000528 564.003200
   7118   7121   7123     1   112.7300484 572.371200
   7122   7121   7123     1   122.1000523 635.131200
   7126   7129   7132     1   111.5100476 526.347200
   7129   7126   7156     1   107.9700462 569.024000
   7129   7132   7135     1   111.0400475 552.288000
   7132   7135   7136     1   112.3500484 533.878400
   7132   7135   7146     1   112.3500484 533.878400
   7135   7136   7139     1   111.0400475 552.288000
   7135   7146   7149     1   111.0400475 552.288000
   7136   7135   7146     1   112.3500484 533.878400
   7136   7139   7142     1   111.0400475 529.694400
   7139   7142   7143     1   123.2000528 564.003200
   7139   7142   7144     1   112.7300484 572.371200
   7143   7142   7144     1   122.1000523 635.131200
   7146   7149   7152     1   111.0400475 529.694400
   7149   7152   7153     1   123.2000528 564.003200
   7149   7152   7154     1   112.7300484 572.371200
   7153   7152   7154     1   122.1000523 635.131200
   7157   7160   7163     1   111.5100476 526.347200
   7160   7163   7166     1   111.0400475 552.288000
   7160   7157   7187     1   107.9700462 569.024000
   7163   7166   7167     1   112.3500484 533.878400
   7163   7166   7177     1   112.3500484 533.878400
   7166   7167   7170     1   111.0400475 552.288000
   7166   7177   7180     1   111.0400475 552.288000
   7167   7170   7173     1   111.0400475 529.694400
   7167   7166   7177     1   112.3500484 533.878400
   7170   7173   7174     1   123.2000528 564.003200
   7170   7173   7175     1   112.7300484 572.371200
   7174   7173   7175     1   122.1000523 635.131200
   7177   7180   7183     1   111.0400475 529.694400
   7180   7183   7184     1   123.2000528 564.003200
   7180   7183   7185     1   112.7300484 572.371200
   7184   7183   7185     1   122.1000523 635.131200
   7188   7191   7194     1   111.5100476 526.347200
   7191   7188   7218     1   107.9700462 569.024000
   7191   7194   7197     1   111.0400475 552.288000
   7194   7197   7198     1   112.3500484 533.878400
   7194   7197   7208     1   112.3500484 533.878400
   7197   7198   7201     1   111.0400475 552.288000
   7197   7208   7211     1   111.0400475 552.288000
   7198   7197   7208     1   112.3500484 533.878400
   7198   7201   7204     1   111.0400475 529.694400
   7201   7204   7205     1   123.2000528 564.003200
   7201   7204   7206     1   112.7300484 572.371200
   7205   7204   7206     1   122.1000523 635.131200
   7208   7211   7214     1   111.0400475 529.694400
   7211   7214   7215     1   123.2000528 564.003200
   7211   7214   7216     1   112.7300484 572.371200
   7215   7214   7216     1   122.1000523 635.131200
   7219   7222   7225     1   111.5100476 526.347200
   7222   7225   7228     1   111.0400475 552.288000
   7222   7219   7249     1   107.9700462 569.024000
   7225   7228   7229     1   112.3500484 533.878400
   7225   7228   7239     1   112.3500484 533.878400
   7228   7229   7232     1   111.0400475 552.288000
   7228   7239   7242     1   111.0400475 552.288000
   7229   7232   7235     1   111.0400475 529.694400
   7229   7228   7239     1   112.3500484 533.878400
   7232   7235   7236     1   123.2000528 564.003200
   7232   7235   7237     1   112.7300484 572.371200
   7236   7235   7237     1   122.1000523 635.131200
   7239   7242   7245     1   111.0400475 529.694400
   7242   7245   7246     1   123.2000528 564.003200
   7242   7245   7247     1   112.7300484 572.371200
   7246   7245   7247     1   122.1000523 635.131200
   7250   7253   7256     1   111.5100476 526.347200
   7253   7250   7280     1   107.9700462 569.024000
   7253   7256   7259     1   111.0400475 552.288000
   7256   7259   7260     1   112.3500484 533.878400
   7256   7259   7270     1   112.3500484 533.878400
   7259   7260   7263     1   111.0400475 552.288000
   7259   7270   7273     1   111.0400475 552.288000
   7260   7259   7270     1   112.3500484 533.878400
   7260   7263   7266     1   111.0400475 529.694400
   7263   7266   7267     1   123.2000528 564.003200
   7263   7266   7268     1   112.7300484 572.371200
   7267   7266   7268     1   122.1000523 635.131200
   7270   7273   7276     1   111.0400475 529.694400
   7273   7276   7277     1   123.2000528 564.003200
   7273   7276   7278     1   112.7300484 572.371200
   7277   7276   7278     1   122.1000523 635.131200
   7281   7284   7287     1   111.5100476 526.347200
   7284   7287   7290     1   111.0400475 552.288000
   7284   7281   7311     1   107.9700462 569.024000
   7287   7290   7291     1   112.3500484 533.878400
   7287   7290   7301     1   112.3500484 533.878400
   7290   7291   7294     1   111.0400475 552.288000
   7290   7301   7304     1   111.0400475 552.288000
   7291   7294   7297     1   111.0400475 529.694400
   7291   7290   7301     1   112.3500484 533.878400
   7294   7297   7298     1   123.2000528 564.003200
   7294   7297   7299     1   112.7300484 572.371200
   7298   7297   7299     1   122.1000523 635.131200
   7301   7304   7307     1   111.0400475 529.694400
   7304   7307   7308     1   123.2000528 564.003200
   7304   7307   7309     1   112.7300484 572.371200
   7308   7307   7309     1   122.1000523 635.131200
   7312   7315   7318     1   111.5100476 526.347200
   7315   7312   7342     1   107.9700462 569.024000
   7315   7318   7321     1   111.0400475 552.288000
   7318   7321   7322     1   112.3500484 533.878400
   7318   7321   7332     1   112.3500484 533.878400
   7321   7322   7325     1   111.0400475 552.288000
   7321   7332   7335     1   111.0400475 552.288000
   7322   7321   7332     1   112.3500484 533.878400
   7322   7325   7328     1   111.0400475 529.694400
   7325   7328   7329     1   123.2000528 564.003200
   7325   7328   7330     1   112.7300484 572.371200
   7329   7328   7330     1   122.1000523 635.131200
   7332   7335   7338     1   111.0400475 529.694400
   7335   7338   7339     1   123.2000528 564.003200
   7335   7338   7340     1   112.7300484 572.371200
   7339   7338   7340     1   122.1000523 635.131200
   7343   7346   7349     1   111.5100476 526.347200
   7346   7349   7352     1   111.0400475 552.288000
   7346   7343   7373     1   107.9700462 569.024000
   7349   7352   7353     1   112.3500484 533.878400
   7349   7352   7363     1   112.3500484 533.878400
   7352   7353   7356     1   111.0400475 552.288000
   7352   7363   7366     1   111.0400475 552.288000
   7353   7356   7359     1   111.0400475 529.694400
   7353   7352   7363     1   112.3500484 533.878400
   7356   7359   7360     1   123.2000528 564.003200
   7356   7359   7361     1   112.7300484 572.371200
   7360   7359   7361     1   122.1000523 635.131200
   7363   7366   7369     1   111.0400475 529.694400
   7366   7369   7370     1   123.2000528 564.003200
   7366   7369   7371     1   112.7300484 572.371200
   7370   7369   7371     1   122.1000523 635.131200
   7374   7377   7380     1   111.5100476 526.347200
   7377   7374   7404     1   107.9700462 569.024000
   7377   7380   7383     1   111.0400475 552.288000
   7380   7383   7384     1   112.3500484 533.878400
   7380   7383   7394     1   112.3500484 533.878400
   7383   7384   7387     1   111.0400475 552.288000
   7383   7394   7397     1   111.0400475 552.288000
   7384   7383   7394     1   112.3500484 533.878400
   7384   7387   7390     1   111.0400475 529.694400
   7387   7390   7391     1   123.2000528 564.003200
   7387   7390   7392     1   112.7300484 572.371200
   7391   7390   7392     1   122.1000523 635.131200
   7394   7397   7400     1   111.0400475 529.694400
   7397   7400   7401     1   123.2000528 564.003200
   7397   7400   7402     1   112.7300484 572.371200
   7401   7400   7402     1   122.1000523 635.131200
   7405   7408   7411     1   111.5100476 526.347200
   7408   7411   7414     1   111.0400475 552.288000
   7408   7405   7435     1   107.9700462 569.024000
   7411   7414   7415     1   112.3500484 533.878400
   7411   7414   7425     1   112.3500484 533.878400
   7414   7415   7418     1   111.0400475 552.288000
   7414   7425   7428     1   111.0400475 552.288000
   7415   7418   7421     1   111.0400475 529.694400
   7415   7414   7425     1   112.3500484 533.878400
   7418   7421   7422     1   123.2000528 564.003200
   7418   7421   7423     1   112.7300484 572.371200
   7422   7421   7423     1   122.1000523 635.131200
   7425   7428   7431     1   111.0400475 529.694400
   7428   7431   7432     1   123.2000528 564.003200
   7428   7431   7433     1   112.7300484 572.371200
   7432   7431   7433     1   122.1000523 635.131200
   7436   7439   7442     1   111.5100476 526.347200
   7439   7436   7466     1   107.9700462 569.024000
   7439   7442   7445     1   111.0400475 552.288000
   7442   7445   7446     1   112.3500484 533.878400
   7442   7445   7456     1   112.3500484 533.878400
   7445   7446   7449     1   111.0400475 552.288000
   7445   7456   7459     1   111.0400475 552.288000
   7446   7445   7456     1   112.3500484 533.878400
   7446   7449   7452     1   111.0400475 529.694400
   7449   7452   7453     1   123.2000528 564.003200
   7449   7452   7454     1   112.7300484 572.371200
   7453   7452   7454     1   122.1000523 635.131200
   7456   7459   7462     1   111.0400475 529.694400
   7459   7462   7463     1   123.2000528 564.003200
   7459   7462   7464     1   112.7300484 572.371200
   7463   7462   7464     1   122.1000523 635.131200
   7467   7470   7473     1   111.5100476 526.347200
   7470   7473   7476     1   111.0400475 552.288000
   7470   7467   7497     1   107.9700462 569.024000
   7473   7476   7477     1   112.3500484 533.878400
   7473   7476   7487     1   112.3500484 533.878400
   7476   7477   7480     1   111.0400475 552.288000
   7476   7487   7490     1   111.0400475 552.288000
   7477   7480   7483     1   111.0400475 529.694400
   7477   7476   7487     1   112.3500484 533.878400
   7480   7483   7484     1   123.2000528 564.003200
   7480   7483   7485     1   112.7300484 572.371200
   7484   7483   7485     1   122.1000523 635.131200
   7487   7490   7493     1   111.0400475 529.694400
   7490   7493   7494     1   123.2000528 564.003200
   7490   7493   7495     1   112.7300484 572.371200
   7494   7493   7495     1   122.1000523 635.131200
   7498   7501   7504     1   111.5100476 526.347200
   7501   7498   7528     1   107.9700462 569.024000
   7501   7504   7507     1   111.0400475 552.288000
   7504   7507   7508     1   112.3500484 533.878400
   7504   7507   7518     1   112.3500484 533.878400
   7507   7508   7511     1   111.0400475 552.288000
   7507   7518   7521     1   111.0400475 552.288000
   7508   7507   7518     1   112.3500484 533.878400
   7508   7511   7514     1   111.0400475 529.694400
   7511   7514   7515     1   123.2000528 564.003200
   7511   7514   7516     1   112.7300484 572.371200
   7515   7514   7516     1   122.1000523 635.131200
   7518   7521   7524     1   111.0400475 529.694400
   7521   7524   7525     1   123.2000528 564.003200
   7521   7524   7526     1   112.7300484 572.371200
   7525   7524   7526     1   122.1000523 635.131200
   7529   7532   7535     1   111.5100476 526.347200
   7532   7535   7538     1   111.0400475 552.288000
   7532   7529   7559     1   107.9700462 569.024000
   7535   7538   7539     1   112.3500484 533.878400
   7535   7538   7549     1   112.3500484 533.878400
   7538   7539   7542     1   111.0400475 552.288000
   7538   7549   7552     1   111.0400475 552.288000
   7539   7542   7545     1   111.0400475 529.694400
   7539   7538   7549     1   112.3500484 533.878400
   7542   7545   7546     1   123.2000528 564.003200
   7542   7545   7547     1   112.7300484 572.371200
   7546   7545   7547     1   122.1000523 635.131200
   7549   7552   7555     1   111.0400475 529.694400
   7552   7555   7556     1   123.2000528 564.003200
   7552   7555   7557     1   112.7300484 572.371200
   7556   7555   7557     1   122.1000523 635.131200
   7560   7563   7566     1   111.5100476 526.347200
   7563   7560   7590     1   107.9700462 569.024000
   7563   7566   7569     1   111.0400475 552.288000
   7566   7569   7570     1   112.3500484 533.878400
   7566   7569   7580     1   112.3500484 533.878400
   7569   7570   7573     1   111.0400475 552.288000
   7569   7580   7583     1   111.0400475 552.288000
   7570   7569   7580     1   112.3500484 533.878400
   7570   7573   7576     1   111.0400475 529.694400
   7573   7576   7577     1   123.2000528 564.003200
   7573   7576   7578     1   112.7300484 572.371200
   7577   7576   7578     1   122.1000523 635.131200
   7580   7583   7586     1   111.0400475 529.694400
   7583   7586   7587     1   123.2000528 564.003200
   7583   7586   7588     1   112.7300484 572.371200
   7587   7586   7588     1   122.1000523 635.131200
   7591   7594   7597     1   111.5100476 526.347200
   7594   7597   7600     1   111.0400475 552.288000
   7594   7591   7621     1   107.9700462 569.024000
   7597   7600   7601     1   112.3500484 533.878400
   7597   7600   7611     1   112.3500484 533.878400
   7600   7601   7604     1   111.0400475 552.288000
   7600   7611   7614     1   111.0400475 552.288000
   7601   7604   7607     1   111.0400475 529.694400
   7601   7600   7611     1   112.3500484 533.878400
   7604   7607   7608     1   123.2000528 564.003200
   7604   7607   7609     1   112.7300484 572.371200
   7608   7607   7609     1   122.1000523 635.131200
   7611   7614   7617     1   111.0400475 529.694400
   7614   7617   7618     1   123.2000528 564.003200
   7614   7617   7619     1   112.7300484 572.371200
   7618   7617   7619     1   122.1000523 635.131200
      1      2      3     1   109.7800468 425.094400
      1      2      4     1   109.7800468 425.094400
      1      5      6     1   109.7800468 425.094400
      1      5      7     1   109.7800468 425.094400
      2      8      9     1   109.8000471 387.438400
      2      8     10     1   109.8000471 387.438400
      3      2      8     1   109.5600471 388.275200
      3      2      4     1   108.4600466 328.025600
      4      2      8     1   109.5600471 388.275200
      5     11     12     1   109.8000471 387.438400
      5     11     13     1   109.8000471 387.438400
      6      5     11     1   109.5600471 388.275200
      6      5      7     1   108.4600466 328.025600
      7      5     11     1   109.5600471 388.275200
      8     14     15     1   109.5600471 388.275200
      8     14     16     1   109.5600471 388.275200
      9      8     14     1   109.8000471 387.438400
      9      8     10     1   107.5800459 329.699200
     10      8     14     1   109.8000471 387.438400
     11     17     18     1   109.5600471 388.275200
     11     17     19     1   109.5600471 388.275200
     12     11     17     1   109.8000471 387.438400
     12     11     13     1   107.5800459 329.699200
     13     11     17     1   109.8000471 387.438400
     15     14     20     1   109.8800469 414.216000
     15     14     16     1   108.4600466 328.025600
     16     14     20     1   109.8800469 414.216000
     18     17     21     1   109.8800469 414.216000
     18     17     19     1   108.4600466 328.025600
     19     17     21     1   109.8800469 414.216000
     20     28     29     1   109.8800469 414.216000
     20     28     30     1   109.8800469 414.216000
     20     31     32     1   109.8800469 414.216000
     20     31     33     1   109.8800469 414.216000
     21     22     23     1   109.8800469 414.216000
     21     22     24     1   109.8800469 414.216000
     21     25     26     1   109.8800469 414.216000
     21     25     27     1   109.8800469 414.216000
     22     34     35     1   109.8000471 387.438400
     22     34     36     1   109.8000471 387.438400
     23     22     34     1   109.5600471 388.275200
     23     22     24     1   108.4600466 328.025600
     24     22     34     1   109.5600471 388.275200
     25     37     38     1   109.8000471 387.438400
     25     37     39     1   109.8000471 387.438400
     26     25     37     1   109.5600471 388.275200
     26     25     27     1   108.4600466 328.025600
     27     25     37     1   109.5600471 388.275200
     28     40     41     1   109.8000471 387.438400
     28     40     42     1   109.8000471 387.438400
     29     28     40     1   109.5600471 388.275200
     29     28     30     1   108.4600466 328.025600
     30     28     40     1   109.5600471 388.275200
     31     43     44     1   109.8000471 387.438400
     31     43     45     1   109.8000471 387.438400
     32     31     43     1   109.5600471 388.275200
     32     31     33     1   108.4600466 328.025600
     33     31     43     1   109.5600471 388.275200
     34     55     56     1   109.5600471 388.275200
     34     55     57     1   109.5600471 388.275200
     35     34     55     1   109.8000471 387.438400
     35     34     36     1   107.5800459 329.699200
     36     34     55     1   109.8000471 387.438400
     37     52     53     1   109.5600471 388.275200
     37     52     54     1   109.5600471 388.275200
     38     37     52     1   109.8000471 387.438400
     38     37     39     1   107.5800459 329.699200
     39     37     52     1   109.8000471 387.438400
     40     49     50     1   109.5600471 388.275200
     40     49     51     1   109.5600471 388.275200
     41     40     49     1   109.8000471 387.438400
     41     40     42     1   107.5800459 329.699200
     42     40     49     1   109.8000471 387.438400
     43     46     47     1   109.5600471 388.275200
     43     46     48     1   109.5600471 388.275200
     44     43     46     1   109.8000471 387.438400
     44     43     45     1   107.5800459 329.699200
     45     43     46     1   109.8000471 387.438400
     47     46     86     1   109.7800468 425.094400
     47     46     48     1   108.4600466 328.025600
     48     46     86     1   109.7800468 425.094400
     50     49    115     1   109.7800468 425.094400
     50     49     51     1   108.4600466 328.025600
     51     49    115     1   109.7800468 425.094400
     53     52    144     1   109.7800468 425.094400
     53     52     54     1   108.4600466 328.025600
     54     52    144     1   109.7800468 425.094400
     56     55    173     1   109.7800468 425.094400
     56     55     57     1   108.4600466 328.025600
     57     55    173     1   109.7800468 425.094400
     58     59     60     1   109.8800469 414.216000
     58     59     61     1   109.8800469 414.216000
     58     62     63     1   109.8800469 414.216000
     58     62     64     1   109.8800469 414.216000
     58     65     66     1   109.8800469 414.216000
     58     65     67     1   109.8800469 414.216000
     59     71     72     1   109.8000471 387.438400
     59     71     73     1   109.8000471 387.438400
     60     59     71     1   109.5600471 388.275200
     60     59     61     1   108.4600466 328.025600
     61     59     71     1   109.5600471 388.275200
     62     74     75     1   109.8000471 387.438400
     62     74     76     1   109.8000471 387.438400
     63     62     74     1   109.5600471 388.275200
     63     62     64     1   108.4600466 328.025600
     64     62     74     1   109.5600471 388.275200
     65     68     69     1   109.8000471 387.438400
     65     68     70     1   109.8000471 387.438400
     66     65     68     1   109.5600471 388.275200
     66     65     67     1   108.4600466 328.025600
     67     65     68     1   109.5600471 388.275200
     68     77     78     1   109.5600471 388.275200
     68     77     79     1   109.5600471 388.275200
     69     68     77     1   109.8000471 387.438400
     69     68     70     1   107.5800459 329.699200
     70     68     77     1   109.8000471 387.438400
     71     83     84     1   109.5600471 388.275200
     71     83     85     1   109.5600471 388.275200
     72     71     83     1   109.8000471 387.438400
     72     71     73     1   107.5800459 329.699200
     73     71     83     1   109.8000471 387.438400
     74     80     81     1   109.5600471 388.275200
     74     80     82     1   109.5600471 388.275200
     75     74     80     1   109.8000471 387.438400
     75     74     76     1   107.5800459 329.699200
     76     74     80     1   109.8000471 387.438400
     78     77     86     1   109.7800468 425.094400
     78     77     79     1   108.4600466 328.025600
     79     77     86     1   109.7800468 425.094400
     81     80    202     1   109.7800468 425.094400
     81     80     82     1   108.4600466 328.025600
     82     80    202     1   109.7800468 425.094400
     84     83    231     1   109.7800468 425.094400
     84     83     85     1   108.4600466 328.025600
     85     83    231     1   109.7800468 425.094400
     87     88     89     1   109.8800469 414.216000
     87     88     90     1   109.8800469 414.216000
     87     91     92     1   109.8800469 414.216000
     87     91     93     1   109.8800469 414.216000
     87     94     95     1   109.8800469 414.216000
     87     94     96     1   109.8800469 414.216000
     88    100    101     1   109.8000471 387.438400
     88    100    102     1   109.8000471 387.438400
     89     88    100     1   109.5600471 388.275200
     89     88     90     1   108.4600466 328.025600
     90     88    100     1   109.5600471 388.275200
     91    103    104     1   109.8000471 387.438400
     91    103    105     1   109.8000471 387.438400
     92     91    103     1   109.5600471 388.275200
     92     91     93     1   108.4600466 328.025600
     93     91    103     1   109.5600471 388.275200
     94     97     98     1   109.8000471 387.438400
     94     97     99     1   109.8000471 387.438400
     95     94     97     1   109.5600471 388.275200
     95     94     96     1   108.4600466 328.025600
     96     94     97     1   109.5600471 388.275200
     97    106    107     1   109.5600471 388.275200
     97    106    108     1   109.5600471 388.275200
     98     97    106     1   109.8000471 387.438400
     98     97     99     1   107.5800459 329.699200
     99     97    106     1   109.8000471 387.438400
    100    112    113     1   109.5600471 388.275200
    100    112    114     1   109.5600471 388.275200
    101    100    112     1   109.8000471 387.438400
    101    100    102     1   107.5800459 329.699200
    102    100    112     1   109.8000471 387.438400
    103    109    110     1   109.5600471 388.275200
    103    109    111     1   109.5600471 388.275200
    104    103    109     1   109.8000471 387.438400
    104    103    105     1   107.5800459 329.699200
    105    103    109     1   109.8000471 387.438400
    107    106    115     1   109.7800468 425.094400
    107    106    108     1   108.4600466 328.025600
    108    106    115     1   109.7800468 425.094400
    110    109    260     1   109.7800468 425.094400
    110    109    111     1   108.4600466 328.025600
    111    109    260     1   109.7800468 425.094400
    113    112    289     1   109.7800468 425.094400
    113    112    114     1   108.4600466 328.025600
    114    112    289     1   109.7800468 425.094400
    116    117    118     1   109.8800469 414.216000
    116    117    119     1   109.8800469 414.216000
    116    120    121     1   109.8800469 414.216000
    116    120    122     1   109.8800469 414.216000
    116    123    124     1   109.8800469 414.216000
    116    123    125     1   109.8800469 414.216000
    117    129    130     1   109.8000471 387.438400
    117    129    131     1   109.8000471 387.438400
    118    117    129     1   109.5600471 388.275200
    118    117    119     1   108.4600466 328.025600
    119    117    129     1   109.5600471 388.275200
    120    132    133     1   109.8000471 387.438400
    120    132    134     1   109.8000471 387.438400
    121    120    132     1   109.5600471 388.275200
    121    120    122     1   108.4600466 328.025600
    122    120    132     1   109.5600471 388.275200
    123    126    127     1   109.8000471 387.438400
    123    126    128     1   109.8000471 387.438400
    124    123    126     1   109.5600471 388.275200
    124    123    125     1   108.4600466 328.025600
    125    123    126     1   109.5600471 388.275200
    126    135    136     1   109.5600471 388.275200
    126    135    137     1   109.5600471 388.275200
    127    126    135     1   109.8000471 387.438400
    127    126    128     1   107.5800459 329.699200
    128    126    135     1   109.8000471 387.438400
    129    141    142     1   109.5600471 388.275200
    129    141    143     1   109.5600471 388.275200
    130    129    141     1   109.8000471 387.438400
    130    129    131     1   107.5800459 329.699200
    131    129    141     1   109.8000471 387.438400
    132    138    139     1   109.5600471 388.275200
    132    138    140     1   109.5600471 388.275200
    133    132    138     1   109.8000471 387.438400
    133    132    134     1   107.5800459 329.699200
    134    132    138     1   109.8000471 387.438400
    136    135    144     1   109.7800468 425.094400
    136    135    137     1   108.4600466 328.025600
    137    135    144     1   109.7800468 425.094400
    139    138    318     1   109.7800468 425.094400
    139    138    140     1   108.4600466 328.025600
    140    138    318     1   109.7800468 425.094400
    142    141    347     1   109.7800468 425.094400
    142    141    143     1   108.4600466 328.025600
    143    141    347     1   109.7800468 425.094400
    145    146    147     1   109.8800469 414.216000
    145    146    148     1   109.8800469 414.216000
    145    149    150     1   109.8800469 414.216000
    145    149    151     1   109.8800469 414.216000
    145    152    153     1   109.8800469 414.216000
    145    152    154     1   109.8800469 414.216000
    146    158    159     1   109.8000471 387.438400
    146    158    160     1   109.8000471 387.438400
    147    146    158     1   109.5600471 388.275200
    147    146    148     1   108.4600466 328.025600
    148    146    158     1   109.5600471 388.275200
    149    161    162     1   109.8000471 387.438400
    149    161    163     1   109.8000471 387.438400
    150    149    161     1   109.5600471 388.275200
    150    149    151     1   108.4600466 328.025600
    151    149    161     1   109.5600471 388.275200
    152    155    156     1   109.8000471 387.438400
    152    155    157     1   109.8000471 387.438400
    153    152    155     1   109.5600471 388.275200
    153    152    154     1   108.4600466 328.025600
    154    152    155     1   109.5600471 388.275200
    155    164    165     1   109.5600471 388.275200
    155    164    166     1   109.5600471 388.275200
    156    155    164     1   109.8000471 387.438400
    156    155    157     1   107.5800459 329.699200
    157    155    164     1   109.8000471 387.438400
    158    170    171     1   109.5600471 388.275200
    158    170    172     1   109.5600471 388.275200
    159    158    170     1   109.8000471 387.438400
    159    158    160     1   107.5800459 329.699200
    160    158    170     1   109.8000471 387.438400
    161    167    168     1   109.5600471 388.275200
    161    167    169     1   109.5600471 388.275200
    162    161    167     1   109.8000471 387.438400
    162    161    163     1   107.5800459 329.699200
    163    161    167     1   109.8000471 387.438400
    165    164    173     1   109.7800468 425.094400
    165    164    166     1   108.4600466 328.025600
    166    164    173     1   109.7800468 425.094400
    168    167    376     1   109.7800468 425.094400
    168    167    169     1   108.4600466 328.025600
    169    167    376     1   109.7800468 425.094400
    171    170    405     1   109.7800468 425.094400
    171    170    172     1   108.4600466 328.025600
    172    170    405     1   109.7800468 425.094400
    174    175    176     1   109.8800469 414.216000
    174    175    177     1   109.8800469 414.216000
    174    178    179     1   109.8800469 414.216000
    174    178    180     1   109.8800469 414.216000
    174    181    182     1   109.8800469 414.216000
    174    181    183     1   109.8800469 414.216000
    175    187    188     1   109.8000471 387.438400
    175    187    189     1   109.8000471 387.438400
    176    175    187     1   109.5600471 388.275200
    176    175    177     1   108.4600466 328.025600
    177    175    187     1   109.5600471 388.275200
    178    190    191     1   109.8000471 387.438400
    178    190    192     1   109.8000471 387.438400
    179    178    190     1   109.5600471 388.275200
    179    178    180     1   108.4600466 328.025600
    180    178    190     1   109.5600471 388.275200
    181    184    185     1   109.8000471 387.438400
    181    184    186     1   109.8000471 387.438400
    182    181    184     1   109.5600471 388.275200
    182    181    183     1   108.4600466 328.025600
    183    181    184     1   109.5600471 388.275200
    184    193    194     1   109.5600471 388.275200
    184    193    195     1   109.5600471 388.275200
    185    184    193     1   109.8000471 387.438400
    185    184    186     1   107.5800459 329.699200
    186    184    193     1   109.8000471 387.438400
    187    199    200     1   109.5600471 388.275200
    187    199    201     1   109.5600471 388.275200
    188    187    199     1   109.8000471 387.438400
    188    187    189     1   107.5800459 329.699200
    189    187    199     1   109.8000471 387.438400
    190    196    197     1   109.5600471 388.275200
    190    196    198     1   109.5600471 388.275200
    191    190    196     1   109.8000471 387.438400
    191    190    192     1   107.5800459 329.699200
    192    190    196     1   109.8000471 387.438400
    194    193    202     1   109.7800468 425.094400
    194    193    195     1   108.4600466 328.025600
    195    193    202     1   109.7800468 425.094400
    197    196    434     1   109.7800468 425.094400
    197    196    198     1   108.4600466 328.025600
    198    196    434     1   109.7800468 425.094400
    200    199    463     1   109.7800468 425.094400
    200    199    201     1   108.4600466 328.025600
    201    199    463     1   109.7800468 425.094400
    203    204    205     1   109.8800469 414.216000
    203    204    206     1   109.8800469 414.216000
    203    207    208     1   109.8800469 414.216000
    203    207    209     1   109.8800469 414.216000
    203    210    211     1   109.8800469 414.216000
    203    210    212     1   109.8800469 414.216000
    204    216    217     1   109.8000471 387.438400
    204    216    218     1   109.8000471 387.438400
    205    204    216     1   109.5600471 388.275200
    205    204    206     1   108.4600466 328.025600
    206    204    216     1   109.5600471 388.275200
    207    219    220     1   109.8000471 387.438400
    207    219    221     1   109.8000471 387.438400
    208    207    219     1   109.5600471 388.275200
    208    207    209     1   108.4600466 328.025600
    209    207    219     1   109.5600471 388.275200
    210    213    214     1   109.8000471 387.438400
    210    213    215     1   109.8000471 387.438400
    211    210    213     1   109.5600471 388.275200
    211    210    212     1   108.4600466 328.025600
    212    210    213     1   109.5600471 388.275200
    213    222    223     1   109.5600471 388.275200
    213    222    224     1   109.5600471 388.275200
    214    213    222     1   109.8000471 387.438400
    214    213    215     1   107.5800459 329.699200
    215    213    222     1   109.8000471 387.438400
    216    228    229     1   109.5600471 388.275200
    216    228    230     1   109.5600471 388.275200
    217    216    228     1   109.8000471 387.438400
    217    216    218     1   107.5800459 329.699200
    218    216    228     1   109.8000471 387.438400
    219    225    226     1   109.5600471 388.275200
    219    225    227     1   109.5600471 388.275200
    220    219    225     1   109.8000471 387.438400
    220    219    221     1   107.5800459 329.699200
    221    219    225     1   109.8000471 387.438400
    223    222    231     1   109.7800468 425.094400
    223    222    224     1   108.4600466 328.025600
    224    222    231     1   109.7800468 425.094400
    226    225    492     1   109.7800468 425.094400
    226    225    227     1   108.4600466 328.025600
    227    225    492     1   109.7800468 425.094400
    229    228    521     1   109.7800468 425.094400
    229    228    230     1   108.4600466 328.025600
    230    228    521     1   109.7800468 425.094400
    232    233    234     1   109.8800469 414.216000
    232    233    235     1   109.8800469 414.216000
    232    236    237     1   109.8800469 414.216000
    232    236    238     1   109.8800469 414.216000
    232    239    240     1   109.8800469 414.216000
    232    239    241     1   109.8800469 414.216000
    233    245    246     1   109.8000471 387.438400
    233    245    247     1   109.8000471 387.438400
    234    233    245     1   109.5600471 388.275200
    234    233    235     1   108.4600466 328.025600
    235    233    245     1   109.5600471 388.275200
    236    248    249     1   109.8000471 387.438400
    236    248    250     1   109.8000471 387.438400
    237    236    248     1   109.5600471 388.275200
    237    236    238     1   108.4600466 328.025600
    238    236    248     1   109.5600471 388.275200
    239    242    243     1   109.8000471 387.438400
    239    242    244     1   109.8000471 387.438400
    240    239    242     1   109.5600471 388.275200
    240    239    241     1   108.4600466 328.025600
    241    239    242     1   109.5600471 388.275200
    242    251    252     1   109.5600471 388.275200
    242    251    253     1   109.5600471 388.275200
    243    242    251     1   109.8000471 387.438400
    243    242    244     1   107.5800459 329.699200
    244    242    251     1   109.8000471 387.438400
    245    257    258     1   109.5600471 388.275200
    245    257    259     1   109.5600471 388.275200
    246    245    257     1   109.8000471 387.438400
    246    245    247     1   107.5800459 329.699200
    247    245    257     1   109.8000471 387.438400
    248    254    255     1   109.5600471 388.275200
    248    254    256     1   109.5600471 388.275200
    249    248    254     1   109.8000471 387.438400
    249    248    250     1   107.5800459 329.699200
    250    248    254     1   109.8000471 387.438400
    252    251    260     1   109.7800468 425.094400
    252    251    253     1   108.4600466 328.025600
    253    251    260     1   109.7800468 425.094400
    255    254    550     1   109.7800468 425.094400
    255    254    256     1   108.4600466 328.025600
    256    254    550     1   109.7800468 425.094400
    258    257    579     1   109.7800468 425.094400
    258    257    259     1   108.4600466 328.025600
    259    257    579     1   109.7800468 425.094400
    261    262    263     1   109.8800469 414.216000
    261    262    264     1   109.8800469 414.216000
    261    265    266     1   109.8800469 414.216000
    261    265    267     1   109.8800469 414.216000
    261    268    269     1   109.8800469 414.216000
    261    268    270     1   109.8800469 414.216000
    262    274    275     1   109.8000471 387.438400
    262    274    276     1   109.8000471 387.438400
    263    262    274     1   109.5600471 388.275200
    263    262    264     1   108.4600466 328.025600
    264    262    274     1   109.5600471 388.275200
    265    277    278     1   109.8000471 387.438400
    265    277    279     1   109.8000471 387.438400
    266    265    277     1   109.5600471 388.275200
    266    265    267     1   108.4600466 328.025600
    267    265    277     1   109.5600471 388.275200
    268    271    272     1   109.8000471 387.438400
    268    271    273     1   109.8000471 387.438400
    269    268    271     1   109.5600471 388.275200
    269    268    270     1   108.4600466 328.025600
    270    268    271     1   109.5600471 388.275200
    271    280    281     1   109.5600471 388.275200
    271    280    282     1   109.5600471 388.275200
    272    271    280     1   109.8000471 387.438400
    272    271    273     1   107.5800459 329.699200
    273    271    280     1   109.8000471 387.438400
    274    286    287     1   109.5600471 388.275200
    274    286    288     1   109.5600471 388.275200
    275    274    286     1   109.8000471 387.438400
    275    274    276     1   107.5800459 329.699200
    276    274    286     1   109.8000471 387.438400
    277    283    284     1   109.5600471 388.275200
    277    283    285     1   109.5600471 388.275200
    278    277    283     1   109.8000471 387.438400
    278    277    279     1   107.5800459 329.699200
    279    277    283     1   109.8000471 387.438400
    281    280    289     1   109.7800468 425.094400
    281    280    282     1   108.4600466 328.025600
    282    280    289     1   109.7800468 425.094400
    284    283    608     1   109.7800468 425.094400
    284    283    285     1   108.4600466 328.025600
    285    283    608     1   109.7800468 425.094400
    287    286    637     1   109.7800468 425.094400
    287    286    288     1   108.4600466 328.025600
    288    286    637     1   109.7800468 425.094400
    290    291    292     1   109.8800469 414.216000
    290    291    293     1   109.8800469 414.216000
    290    294    295     1   109.8800469 414.216000
    290    294    296     1   109.8800469 414.216000
    290    297    298     1   109.8800469 414.216000
    290    297    299     1   109.8800469 414.216000
    291    303    304     1   109.8000471 387.438400
    291    303    305     1   109.8000471 387.438400
    292    291    303     1   109.5600471 388.275200
    292    291    293     1   108.4600466 328.025600
    293    291    303     1   109.5600471 388.275200
    294    306    307     1   109.8000471 387.438400
    294    306    308     1   109.8000471 387.438400
    295    294    306     1   109.5600471 388.275200
    295    294    296     1   108.4600466 328.025600
    296    294    306     1   109.5600471 388.275200
    297    300    301     1   109.8000471 387.438400
    297    300    302     1   109.8000471 387.438400
    298    297    300     1   109.5600471 388.275200
    298    297    299     1   108.4600466 328.025600
    299    297    300     1   109.5600471 388.275200
    300    309    310     1   109.5600471 388.275200
    300    309    311     1   109.5600471 388.275200
    301    300    309     1   109.8000471 387.438400
    301    300    302     1   107.5800459 329.699200
    302    300    309     1   109.8000471 387.438400
    303    315    316     1   109.5600471 388.275200
    303    315    317     1   109.5600471 388.275200
    304    303    315     1   109.8000471 387.438400
    304    303    305     1   107.5800459 329.699200
    305    303    315     1   109.8000471 387.438400
    306    312    313     1   109.5600471 388.275200
    306    312    314     1   109.5600471 388.275200
    307    306    312     1   109.8000471 387.438400
    307    306    308     1   107.5800459 329.699200
    308    306    312     1   109.8000471 387.438400
    310    309    318     1   109.7800468 425.094400
    310    309    311     1   108.4600466 328.025600
    311    309    318     1   109.7800468 425.094400
    313    312    666     1   109.7800468 425.094400
    313    312    314     1   108.4600466 328.025600
    314    312    666     1   109.7800468 425.094400
    316    315    695     1   109.7800468 425.094400
    316    315    317     1   108.4600466 328.025600
    317    315    695     1   109.7800468 425.094400
    319    320    321     1   109.8800469 414.216000
    319    320    322     1   109.8800469 414.216000
    319    323    324     1   109.8800469 414.216000
    319    323    325     1   109.8800469 414.216000
    319    326    327     1   109.8800469 414.216000
    319    326    328     1   109.8800469 414.216000
    320    332    333     1   109.8000471 387.438400
    320    332    334     1   109.8000471 387.438400
    321    320    332     1   109.5600471 388.275200
    321    320    322     1   108.4600466 328.025600
    322    320    332     1   109.5600471 388.275200
    323    335    336     1   109.8000471 387.438400
    323    335    337     1   109.8000471 387.438400
    324    323    335     1   109.5600471 388.275200
    324    323    325     1   108.4600466 328.025600
    325    323    335     1   109.5600471 388.275200
    326    329    330     1   109.8000471 387.438400
    326    329    331     1   109.8000471 387.438400
    327    326    329     1   109.5600471 388.275200
    327    326    328     1   108.4600466 328.025600
    328    326    329     1   109.5600471 388.275200
    329    338    339     1   109.5600471 388.275200
    329    338    340     1   109.5600471 388.275200
    330    329    338     1   109.8000471 387.438400
    330    329    331     1   107.5800459 329.699200
    331    329    338     1   109.8000471 387.438400
    332    344    345     1   109.5600471 388.275200
    332    344    346     1   109.5600471 388.275200
    333    332    344     1   109.8000471 387.438400
    333    332    334     1   107.5800459 329.699200
    334    332    344     1   109.8000471 387.438400
    335    341    342     1   109.5600471 388.275200
    335    341    343     1   109.5600471 388.275200
    336    335    341     1   109.8000471 387.438400
    336    335    337     1   107.5800459 329.699200
    337    335    341     1   109.8000471 387.438400
    339    338    347     1   109.7800468 425.094400
    339    338    340     1   108.4600466 328.025600
    340    338    347     1   109.7800468 425.094400
    342    341    724     1   109.7800468 425.094400
    342    341    343     1   108.4600466 328.025600
    343    341    724     1   109.7800468 425.094400
    345    344    753     1   109.7800468 425.094400
    345    344    346     1   108.4600466 328.025600
    346    344    753     1   109.7800468 425.094400
    348    349    350     1   109.8800469 414.216000
    348    349    351     1   109.8800469 414.216000
    348    352    353     1   109.8800469 414.216000
    348    352    354     1   109.8800469 414.216000
    348    355    356     1   109.8800469 414.216000
    348    355    357     1   109.8800469 414.216000
    349    361    362     1   109.8000471 387.438400
    349    361    363     1   109.8000471 387.438400
    350    349    361     1   109.5600471 388.275200
    350    349    351     1   108.4600466 328.025600
    351    349    361     1   109.5600471 388.275200
    352    364    365     1   109.8000471 387.438400
    352    364    366     1   109.8000471 387.438400
    353    352    364     1   109.5600471 388.275200
    353    352    354     1   108.4600466 328.025600
    354    352    364     1   109.5600471 388.275200
    355    358    359     1   109.8000471 387.438400
    355    358    360     1   109.8000471 387.438400
    356    355    358     1   109.5600471 388.275200
    356    355    357     1   108.4600466 328.025600
    357    355    358     1   109.5600471 388.275200
    358    367    368     1   109.5600471 388.275200
    358    367    369     1   109.5600471 388.275200
    359    358    367     1   109.8000471 387.438400
    359    358    360     1   107.5800459 329.699200
    360    358    367     1   109.8000471 387.438400
    361    373    374     1   109.5600471 388.275200
    361    373    375     1   109.5600471 388.275200
    362    361    373     1   109.8000471 387.438400
    362    361    363     1   107.5800459 329.699200
    363    361    373     1   109.8000471 387.438400
    364    370    371     1   109.5600471 388.275200
    364    370    372     1   109.5600471 388.275200
    365    364    370     1   109.8000471 387.438400
    365    364    366     1   107.5800459 329.699200
    366    364    370     1   109.8000471 387.438400
    368    367    376     1   109.7800468 425.094400
    368    367    369     1   108.4600466 328.025600
    369    367    376     1   109.7800468 425.094400
    371    370    782     1   109.7800468 425.094400
    371    370    372     1   108.4600466 328.025600
    372    370    782     1   109.7800468 425.094400
    374    373    811     1   109.7800468 425.094400
    374    373    375     1   108.4600466 328.025600
    375    373    811     1   109.7800468 425.094400
    377    378    379     1   109.8800469 414.216000
    377    378    380     1   109.8800469 414.216000
    377    381    382     1   109.8800469 414.216000
    377    381    383     1   109.8800469 414.216000
    377    384    385     1   109.8800469 414.216000
    377    384    386     1   109.8800469 414.216000
    378    390    391     1   109.8000471 387.438400
    378    390    392     1   109.8000471 387.438400
    379    378    390     1   109.5600471 388.275200
    379    378    380     1   108.4600466 328.025600
    380    378    390     1   109.5600471 388.275200
    381    393    394     1   109.8000471 387.438400
    381    393    395     1   109.8000471 387.438400
    382    381    393     1   109.5600471 388.275200
    382    381    383     1   108.4600466 328.025600
    383    381    393     1   109.5600471 388.275200
    384    387    388     1   109.8000471 387.438400
    384    387    389     1   109.8000471 387.438400
    385    384    387     1   109.5600471 388.275200
    385    384    386     1   108.4600466 328.025600
    386    384    387     1   109.5600471 388.275200
    387    396    397     1   109.5600471 388.275200
    387    396    398     1   109.5600471 388.275200
    388    387    396     1   109.8000471 387.438400
    388    387    389     1   107.5800459 329.699200
    389    387    396     1   109.8000471 387.438400
    390    402    403     1   109.5600471 388.275200
    390    402    404     1   109.5600471 388.275200
    391    390    402     1   109.8000471 387.438400
    391    390    392     1   107.5800459 329.699200
    392    390    402     1   109.8000471 387.438400
    393    399    400     1   109.5600471 388.275200
    393    399    401     1   109.5600471 388.275200
    394    393    399     1   109.8000471 387.438400
    394    393    395     1   107.5800459 329.699200
    395    393    399     1   109.8000471 387.438400
    397    396    405     1   109.7800468 425.094400
    397    396    398     1   108.4600466 328.025600
    398    396    405     1   109.7800468 425.094400
    400    399    840     1   109.7800468 425.094400
    400    399    401     1   108.4600466 328.025600
    401    399    840     1   109.7800468 425.094400
    403    402    869     1   109.7800468 425.094400
    403    402    404     1   108.4600466 328.025600
    404    402    869     1   109.7800468 425.094400
    406    407    408     1   109.8800469 414.216000
    406    407    409     1   109.8800469 414.216000
    406    410    411     1   109.8800469 414.216000
    406    410    412     1   109.8800469 414.216000
    406    413    414     1   109.8800469 414.216000
    406    413    415     1   109.8800469 414.216000
    407    419    420     1   109.8000471 387.438400
    407    419    421     1   109.8000471 387.438400
    408    407    419     1   109.5600471 388.275200
    408    407    409     1   108.4600466 328.025600
    409    407    419     1   109.5600471 388.275200
    410    422    423     1   109.8000471 387.438400
    410    422    424     1   109.8000471 387.438400
    411    410    422     1   109.5600471 388.275200
    411    410    412     1   108.4600466 328.025600
    412    410    422     1   109.5600471 388.275200
    413    416    417     1   109.8000471 387.438400
    413    416    418     1   109.8000471 387.438400
    414    413    416     1   109.5600471 388.275200
    414    413    415     1   108.4600466 328.025600
    415    413    416     1   109.5600471 388.275200
    416    425    426     1   109.5600471 388.275200
    416    425    427     1   109.5600471 388.275200
    417    416    425     1   109.8000471 387.438400
    417    416    418     1   107.5800459 329.699200
    418    416    425     1   109.8000471 387.438400
    419    431    432     1   109.5600471 388.275200
    419    431    433     1   109.5600471 388.275200
    420    419    431     1   109.8000471 387.438400
    420    419    421     1   107.5800459 329.699200
    421    419    431     1   109.8000471 387.438400
    422    428    429     1   109.5600471 388.275200
    422    428    430     1   109.5600471 388.275200
    423    422    428     1   109.8000471 387.438400
    423    422    424     1   107.5800459 329.699200
    424    422    428     1   109.8000471 387.438400
    426    425    434     1   109.7800468 425.094400
    426    425    427     1   108.4600466 328.025600
    427    425    434     1   109.7800468 425.094400
    429    428    898     1   109.7800468 425.094400
    429    428    430     1   108.4600466 328.025600
    430    428    898     1   109.7800468 425.094400
    432    431    927     1   109.7800468 425.094400
    432    431    433     1   108.4600466 328.025600
    433    431    927     1   109.7800468 425.094400
    435    436    437     1   109.8800469 414.216000
    435    436    438     1   109.8800469 414.216000
    435    439    440     1   109.8800469 414.216000
    435    439    441     1   109.8800469 414.216000
    435    442    443     1   109.8800469 414.216000
    435    442    444     1   109.8800469 414.216000
    436    448    449     1   109.8000471 387.438400
    436    448    450     1   109.8000471 387.438400
    437    436    448     1   109.5600471 388.275200
    437    436    438     1   108.4600466 328.025600
    438    436    448     1   109.5600471 388.275200
    439    451    452     1   109.8000471 387.438400
    439    451    453     1   109.8000471 387.438400
    440    439    451     1   109.5600471 388.275200
    440    439    441     1   108.4600466 328.025600
    441    439    451     1   109.5600471 388.275200
    442    445    446     1   109.8000471 387.438400
    442    445    447     1   109.8000471 387.438400
    443    442    445     1   109.5600471 388.275200
    443    442    444     1   108.4600466 328.025600
    444    442    445     1   109.5600471 388.275200
    445    454    455     1   109.5600471 388.275200
    445    454    456     1   109.5600471 388.275200
    446    445    454     1   109.8000471 387.438400
    446    445    447     1   107.5800459 329.699200
    447    445    454     1   109.8000471 387.438400
    448    460    461     1   109.5600471 388.275200
    448    460    462     1   109.5600471 388.275200
    449    448    460     1   109.8000471 387.438400
    449    448    450     1   107.5800459 329.699200
    450    448    460     1   109.8000471 387.438400
    451    457    458     1   109.5600471 388.275200
    451    457    459     1   109.5600471 388.275200
    452    451    457     1   109.8000471 387.438400
    452    451    453     1   107.5800459 329.699200
    453    451    457     1   109.8000471 387.438400
    455    454    463     1   109.7800468 425.094400
    455    454    456     1   108.4600466 328.025600
    456    454    463     1   109.7800468 425.094400
    458    457    956     1   109.7800468 425.094400
    458    457    459     1   108.4600466 328.025600
    459    457    956     1   109.7800468 425.094400
    461    460    985     1   109.7800468 425.094400
    461    460    462     1   108.4600466 328.025600
    462    460    985     1   109.7800468 425.094400
    464    465    466     1   109.8800469 414.216000
    464    465    467     1   109.8800469 414.216000
    464    468    469     1   109.8800469 414.216000
    464    468    470     1   109.8800469 414.216000
    464    471    472     1   109.8800469 414.216000
    464    471    473     1   109.8800469 414.216000
    465    477    478     1   109.8000471 387.438400
    465    477    479     1   109.8000471 387.438400
    466    465    477     1   109.5600471 388.275200
    466    465    467     1   108.4600466 328.025600
    467    465    477     1   109.5600471 388.275200
    468    480    481     1   109.8000471 387.438400
    468    480    482     1   109.8000471 387.438400
    469    468    480     1   109.5600471 388.275200
    469    468    470     1   108.4600466 328.025600
    470    468    480     1   109.5600471 388.275200
    471    474    475     1   109.8000471 387.438400
    471    474    476     1   109.8000471 387.438400
    472    471    474     1   109.5600471 388.275200
    472    471    473     1   108.4600466 328.025600
    473    471    474     1   109.5600471 388.275200
    474    483    484     1   109.5600471 388.275200
    474    483    485     1   109.5600471 388.275200
    475    474    483     1   109.8000471 387.438400
    475    474    476     1   107.5800459 329.699200
    476    474    483     1   109.8000471 387.438400
    477    489    490     1   109.5600471 388.275200
    477    489    491     1   109.5600471 388.275200
    478    477    489     1   109.8000471 387.438400
    478    477    479     1   107.5800459 329.699200
    479    477    489     1   109.8000471 387.438400
    480    486    487     1   109.5600471 388.275200
    480    486    488     1   109.5600471 388.275200
    481    480    486     1   109.8000471 387.438400
    481    480    482     1   107.5800459 329.699200
    482    480    486     1   109.8000471 387.438400
    484    483    492     1   109.7800468 425.094400
    484    483    485     1   108.4600466 328.025600
    485    483    492     1   109.7800468 425.094400
    487    486   1014     1   109.7800468 425.094400
    487    486    488     1   108.4600466 328.025600
    488    486   1014     1   109.7800468 425.094400
    490    489   1043     1   109.7800468 425.094400
    490    489    491     1   108.4600466 328.025600
    491    489   1043     1   109.7800468 425.094400
    493    494    495     1   109.8800469 414.216000
    493    494    496     1   109.8800469 414.216000
    493    497    498     1   109.8800469 414.216000
    493    497    499     1   109.8800469 414.216000
    493    500    501     1   109.8800469 414.216000
    493    500    502     1   109.8800469 414.216000
    494    506    507     1   109.8000471 387.438400
    494    506    508     1   109.8000471 387.438400
    495    494    506     1   109.5600471 388.275200
    495    494    496     1   108.4600466 328.025600
    496    494    506     1   109.5600471 388.275200
    497    509    510     1   109.8000471 387.438400
    497    509    511     1   109.8000471 387.438400
    498    497    509     1   109.5600471 388.275200
    498    497    499     1   108.4600466 328.025600
    499    497    509     1   109.5600471 388.275200
    500    503    504     1   109.8000471 387.438400
    500    503    505     1   109.8000471 387.438400
    501    500    503     1   109.5600471 388.275200
    501    500    502     1   108.4600466 328.025600
    502    500    503     1   109.5600471 388.275200
    503    512    513     1   109.5600471 388.275200
    503    512    514     1   109.5600471 388.275200
    504    503    512     1   109.8000471 387.438400
    504    503    505     1   107.5800459 329.699200
    505    503    512     1   109.8000471 387.438400
    506    518    519     1   109.5600471 388.275200
    506    518    520     1   109.5600471 388.275200
    507    506    518     1   109.8000471 387.438400
    507    506    508     1   107.5800459 329.699200
    508    506    518     1   109.8000471 387.438400
    509    515    516     1   109.5600471 388.275200
    509    515    517     1   109.5600471 388.275200
    510    509    515     1   109.8000471 387.438400
    510    509    511     1   107.5800459 329.699200
    511    509    515     1   109.8000471 387.438400
    513    512    521     1   109.7800468 425.094400
    513    512    514     1   108.4600466 328.025600
    514    512    521     1   109.7800468 425.094400
    516    515   1072     1   109.7800468 425.094400
    516    515    517     1   108.4600466 328.025600
    517    515   1072     1   109.7800468 425.094400
    519    518   1101     1   109.7800468 425.094400
    519    518    520     1   108.4600466 328.025600
    520    518   1101     1   109.7800468 425.094400
    522    523    524     1   109.8800469 414.216000
    522    523    525     1   109.8800469 414.216000
    522    526    527     1   109.8800469 414.216000
    522    526    528     1   109.8800469 414.216000
    522    529    530     1   109.8800469 414.216000
    522    529    531     1   109.8800469 414.216000
    523    535    536     1   109.8000471 387.438400
    523    535    537     1   109.8000471 387.438400
    524    523    535     1   109.5600471 388.275200
    524    523    525     1   108.4600466 328.025600
    525    523    535     1   109.5600471 388.275200
    526    538    539     1   109.8000471 387.438400
    526    538    540     1   109.8000471 387.438400
    527    526    538     1   109.5600471 388.275200
    527    526    528     1   108.4600466 328.025600
    528    526    538     1   109.5600471 388.275200
    529    532    533     1   109.8000471 387.438400
    529    532    534     1   109.8000471 387.438400
    530    529    532     1   109.5600471 388.275200
    530    529    531     1   108.4600466 328.025600
    531    529    532     1   109.5600471 388.275200
    532    541    542     1   109.5600471 388.275200
    532    541    543     1   109.5600471 388.275200
    533    532    541     1   109.8000471 387.438400
    533    532    534     1   107.5800459 329.699200
    534    532    541     1   109.8000471 387.438400
    535    547    548     1   109.5600471 388.275200
    535    547    549     1   109.5600471 388.275200
    536    535    547     1   109.8000471 387.438400
    536    535    537     1   107.5800459 329.699200
    537    535    547     1   109.8000471 387.438400
    538    544    545     1   109.5600471 388.275200
    538    544    546     1   109.5600471 388.275200
    539    538    544     1   109.8000471 387.438400
    539    538    540     1   107.5800459 329.699200
    540    538    544     1   109.8000471 387.438400
    542    541    550     1   109.7800468 425.094400
    542    541    543     1   108.4600466 328.025600
    543    541    550     1   109.7800468 425.094400
    545    544   1130     1   109.7800468 425.094400
    545    544    546     1   108.4600466 328.025600
    546    544   1130     1   109.7800468 425.094400
    548    547   1159     1   109.7800468 425.094400
    548    547    549     1   108.4600466 328.025600
    549    547   1159     1   109.7800468 425.094400
    551    552    553     1   109.8800469 414.216000
    551    552    554     1   109.8800469 414.216000
    551    555    556     1   109.8800469 414.216000
    551    555    557     1   109.8800469 414.216000
    551    558    559     1   109.8800469 414.216000
    551    558    560     1   109.8800469 414.216000
    552    564    565     1   109.8000471 387.438400
    552    564    566     1   109.8000471 387.438400
    553    552    564     1   109.5600471 388.275200
    553    552    554     1   108.4600466 328.025600
    554    552    564     1   109.5600471 388.275200
    555    567    568     1   109.8000471 387.438400
    555    567    569     1   109.8000471 387.438400
    556    555    567     1   109.5600471 388.275200
    556    555    557     1   108.4600466 328.025600
    557    555    567     1   109.5600471 388.275200
    558    561    562     1   109.8000471 387.438400
    558    561    563     1   109.8000471 387.438400
    559    558    561     1   109.5600471 388.275200
    559    558    560     1   108.4600466 328.025600
    560    558    561     1   109.5600471 388.275200
    561    570    571     1   109.5600471 388.275200
    561    570    572     1   109.5600471 388.275200
    562    561    570     1   109.8000471 387.438400
    562    561    563     1   107.5800459 329.699200
    563    561    570     1   109.8000471 387.438400
    564    576    577     1   109.5600471 388.275200
    564    576    578     1   109.5600471 388.275200
    565    564    576     1   109.8000471 387.438400
    565    564    566     1   107.5800459 329.699200
    566    564    576     1   109.8000471 387.438400
    567    573    574     1   109.5600471 388.275200
    567    573    575     1   109.5600471 388.275200
    568    567    573     1   109.8000471 387.438400
    568    567    569     1   107.5800459 329.699200
    569    567    573     1   109.8000471 387.438400
    571    570    579     1   109.7800468 425.094400
    571    570    572     1   108.4600466 328.025600
    572    570    579     1   109.7800468 425.094400
    574    573   1188     1   109.7800468 425.094400
    574    573    575     1   108.4600466 328.025600
    575    573   1188     1   109.7800468 425.094400
    577    576   1217     1   109.7800468 425.094400
    577    576    578     1   108.4600466 328.025600
    578    576   1217     1   109.7800468 425.094400
    580    581    582     1   109.8800469 414.216000
    580    581    583     1   109.8800469 414.216000
    580    584    585     1   109.8800469 414.216000
    580    584    586     1   109.8800469 414.216000
    580    587    588     1   109.8800469 414.216000
    580    587    589     1   109.8800469 414.216000
    581    593    594     1   109.8000471 387.438400
    581    593    595     1   109.8000471 387.438400
    582    581    593     1   109.5600471 388.275200
    582    581    583     1   108.4600466 328.025600
    583    581    593     1   109.5600471 388.275200
    584    596    597     1   109.8000471 387.438400
    584    596    598     1   109.8000471 387.438400
    585    584    596     1   109.5600471 388.275200
    585    584    586     1   108.4600466 328.025600
    586    584    596     1   109.5600471 388.275200
    587    590    591     1   109.8000471 387.438400
    587    590    592     1   109.8000471 387.438400
    588    587    590     1   109.5600471 388.275200
    588    587    589     1   108.4600466 328.025600
    589    587    590     1   109.5600471 388.275200
    590    599    600     1   109.5600471 388.275200
    590    599    601     1   109.5600471 388.275200
    591    590    599     1   109.8000471 387.438400
    591    590    592     1   107.5800459 329.699200
    592    590    599     1   109.8000471 387.438400
    593    605    606     1   109.5600471 388.275200
    593    605    607     1   109.5600471 388.275200
    594    593    605     1   109.8000471 387.438400
    594    593    595     1   107.5800459 329.699200
    595    593    605     1   109.8000471 387.438400
    596    602    603     1   109.5600471 388.275200
    596    602    604     1   109.5600471 388.275200
    597    596    602     1   109.8000471 387.438400
    597    596    598     1   107.5800459 329.699200
    598    596    602     1   109.8000471 387.438400
    600    599    608     1   109.7800468 425.094400
    600    599    601     1   108.4600466 328.025600
    601    599    608     1   109.7800468 425.094400
    603    602   1246     1   109.7800468 425.094400
    603    602    604     1   108.4600466 328.025600
    604    602   1246     1   109.7800468 425.094400
    606    605   1275     1   109.7800468 425.094400
    606    605    607     1   108.4600466 328.025600
    607    605   1275     1   109.7800468 425.094400
    609    610    611     1   109.8800469 414.216000
    609    610    612     1   109.8800469 414.216000
    609    613    614     1   109.8800469 414.216000
    609    613    615     1   109.8800469 414.216000
    609    616    617     1   109.8800469 414.216000
    609    616    618     1   109.8800469 414.216000
    610    622    623     1   109.8000471 387.438400
    610    622    624     1   109.8000471 387.438400
    611    610    622     1   109.5600471 388.275200
    611    610    612     1   108.4600466 328.025600
    612    610    622     1   109.5600471 388.275200
    613    625    626     1   109.8000471 387.438400
    613    625    627     1   109.8000471 387.438400
    614    613    625     1   109.5600471 388.275200
    614    613    615     1   108.4600466 328.025600
    615    613    625     1   109.5600471 388.275200
    616    619    620     1   109.8000471 387.438400
    616    619    621     1   109.8000471 387.438400
    617    616    619     1   109.5600471 388.275200
    617    616    618     1   108.4600466 328.025600
    618    616    619     1   109.5600471 388.275200
    619    628    629     1   109.5600471 388.275200
    619    628    630     1   109.5600471 388.275200
    620    619    628     1   109.8000471 387.438400
    620    619    621     1   107.5800459 329.699200
    621    619    628     1   109.8000471 387.438400
    622    634    635     1   109.5600471 388.275200
    622    634    636     1   109.5600471 388.275200
    623    622    634     1   109.8000471 387.438400
    623    622    624     1   107.5800459 329.699200
    624    622    634     1   109.8000471 387.438400
    625    631    632     1   109.5600471 388.275200
    625    631    633     1   109.5600471 388.275200
    626    625    631     1   109.8000471 387.438400
    626    625    627     1   107.5800459 329.699200
    627    625    631     1   109.8000471 387.438400
    629    628    637     1   109.7800468 425.094400
    629    628    630     1   108.4600466 328.025600
    630    628    637     1   109.7800468 425.094400
    632    631   1304     1   109.7800468 425.094400
    632    631    633     1   108.4600466 328.025600
    633    631   1304     1   109.7800468 425.094400
    635    634   1333     1   109.7800468 425.094400
    635    634    636     1   108.4600466 328.025600
    636    634   1333     1   109.7800468 425.094400
    638    639    640     1   109.8800469 414.216000
    638    639    641     1   109.8800469 414.216000
    638    642    643     1   109.8800469 414.216000
    638    642    644     1   109.8800469 414.216000
    638    645    646     1   109.8800469 414.216000
    638    645    647     1   109.8800469 414.216000
    639    651    652     1   109.8000471 387.438400
    639    651    653     1   109.8000471 387.438400
    640    639    651     1   109.5600471 388.275200
    640    639    641     1   108.4600466 328.025600
    641    639    651     1   109.5600471 388.275200
    642    654    655     1   109.8000471 387.438400
    642    654    656     1   109.8000471 387.438400
    643    642    654     1   109.5600471 388.275200
    643    642    644     1   108.4600466 328.025600
    644    642    654     1   109.5600471 388.275200
    645    648    649     1   109.8000471 387.438400
    645    648    650     1   109.8000471 387.438400
    646    645    648     1   109.5600471 388.275200
    646    645    647     1   108.4600466 328.025600
    647    645    648     1   109.5600471 388.275200
    648    657    658     1   109.5600471 388.275200
    648    657    659     1   109.5600471 388.275200
    649    648    657     1   109.8000471 387.438400
    649    648    650     1   107.5800459 329.699200
    650    648    657     1   109.8000471 387.438400
    651    663    664     1   109.5600471 388.275200
    651    663    665     1   109.5600471 388.275200
    652    651    663     1   109.8000471 387.438400
    652    651    653     1   107.5800459 329.699200
    653    651    663     1   109.8000471 387.438400
    654    660    661     1   109.5600471 388.275200
    654    660    662     1   109.5600471 388.275200
    655    654    660     1   109.8000471 387.438400
    655    654    656     1   107.5800459 329.699200
    656    654    660     1   109.8000471 387.438400
    658    657    666     1   109.7800468 425.094400
    658    657    659     1   108.4600466 328.025600
    659    657    666     1   109.7800468 425.094400
    661    660   1362     1   109.7800468 425.094400
    661    660    662     1   108.4600466 328.025600
    662    660   1362     1   109.7800468 425.094400
    664    663   1391     1   109.7800468 425.094400
    664    663    665     1   108.4600466 328.025600
    665    663   1391     1   109.7800468 425.094400
    667    668    669     1   109.8800469 414.216000
    667    668    670     1   109.8800469 414.216000
    667    671    672     1   109.8800469 414.216000
    667    671    673     1   109.8800469 414.216000
    667    674    675     1   109.8800469 414.216000
    667    674    676     1   109.8800469 414.216000
    668    680    681     1   109.8000471 387.438400
    668    680    682     1   109.8000471 387.438400
    669    668    680     1   109.5600471 388.275200
    669    668    670     1   108.4600466 328.025600
    670    668    680     1   109.5600471 388.275200
    671    683    684     1   109.8000471 387.438400
    671    683    685     1   109.8000471 387.438400
    672    671    683     1   109.5600471 388.275200
    672    671    673     1   108.4600466 328.025600
    673    671    683     1   109.5600471 388.275200
    674    677    678     1   109.8000471 387.438400
    674    677    679     1   109.8000471 387.438400
    675    674    677     1   109.5600471 388.275200
    675    674    676     1   108.4600466 328.025600
    676    674    677     1   109.5600471 388.275200
    677    686    687     1   109.5600471 388.275200
    677    686    688     1   109.5600471 388.275200
    678    677    686     1   109.8000471 387.438400
    678    677    679     1   107.5800459 329.699200
    679    677    686     1   109.8000471 387.438400
    680    692    693     1   109.5600471 388.275200
    680    692    694     1   109.5600471 388.275200
    681    680    692     1   109.8000471 387.438400
    681    680    682     1   107.5800459 329.699200
    682    680    692     1   109.8000471 387.438400
    683    689    690     1   109.5600471 388.275200
    683    689    691     1   109.5600471 388.275200
    684    683    689     1   109.8000471 387.438400
    684    683    685     1   107.5800459 329.699200
    685    683    689     1   109.8000471 387.438400
    687    686    695     1   109.7800468 425.094400
    687    686    688     1   108.4600466 328.025600
    688    686    695     1   109.7800468 425.094400
    690    689   1420     1   109.7800468 425.094400
    690    689    691     1   108.4600466 328.025600
    691    689   1420     1   109.7800468 425.094400
    693    692   1449     1   109.7800468 425.094400
    693    692    694     1   108.4600466 328.025600
    694    692   1449     1   109.7800468 425.094400
    696    697    698     1   109.8800469 414.216000
    696    697    699     1   109.8800469 414.216000
    696    700    701     1   109.8800469 414.216000
    696    700    702     1   109.8800469 414.216000
    696    703    704     1   109.8800469 414.216000
    696    703    705     1   109.8800469 414.216000
    697    709    710     1   109.8000471 387.438400
    697    709    711     1   109.8000471 387.438400
    698    697    709     1   109.5600471 388.275200
    698    697    699     1   108.4600466 328.025600
    699    697    709     1   109.5600471 388.275200
    700    712    713     1   109.8000471 387.438400
    700    712    714     1   109.8000471 387.438400
    701    700    712     1   109.5600471 388.275200
    701    700    702     1   108.4600466 328.025600
    702    700    712     1   109.5600471 388.275200
    703    706    707     1   109.8000471 387.438400
    703    706    708     1   109.8000471 387.438400
    704    703    706     1   109.5600471 388.275200
    704    703    705     1   108.4600466 328.025600
    705    703    706     1   109.5600471 388.275200
    706    715    716     1   109.5600471 388.275200
    706    715    717     1   109.5600471 388.275200
    707    706    715     1   109.8000471 387.438400
    707    706    708     1   107.5800459 329.699200
    708    706    715     1   109.8000471 387.438400
    709    721    722     1   109.5600471 388.275200
    709    721    723     1   109.5600471 388.275200
    710    709    721     1   109.8000471 387.438400
    710    709    711     1   107.5800459 329.699200
    711    709    721     1   109.8000471 387.438400
    712    718    719     1   109.5600471 388.275200
    712    718    720     1   109.5600471 388.275200
    713    712    718     1   109.8000471 387.438400
    713    712    714     1   107.5800459 329.699200
    714    712    718     1   109.8000471 387.438400
    716    715    724     1   109.7800468 425.094400
    716    715    717     1   108.4600466 328.025600
    717    715    724     1   109.7800468 425.094400
    719    718   1478     1   109.7800468 425.094400
    719    718    720     1   108.4600466 328.025600
    720    718   1478     1   109.7800468 425.094400
    722    721   1507     1   109.7800468 425.094400
    722    721    723     1   108.4600466 328.025600
    723    721   1507     1   109.7800468 425.094400
    725    726    727     1   109.8800469 414.216000
    725    726    728     1   109.8800469 414.216000
    725    729    730     1   109.8800469 414.216000
    725    729    731     1   109.8800469 414.216000
    725    732    733     1   109.8800469 414.216000
    725    732    734     1   109.8800469 414.216000
    726    738    739     1   109.8000471 387.438400
    726    738    740     1   109.8000471 387.438400
    727    726    738     1   109.5600471 388.275200
    727    726    728     1   108.4600466 328.025600
    728    726    738     1   109.5600471 388.275200
    729    741    742     1   109.8000471 387.438400
    729    741    743     1   109.8000471 387.438400
    730    729    741     1   109.5600471 388.275200
    730    729    731     1   108.4600466 328.025600
    731    729    741     1   109.5600471 388.275200
    732    735    736     1   109.8000471 387.438400
    732    735    737     1   109.8000471 387.438400
    733    732    735     1   109.5600471 388.275200
    733    732    734     1   108.4600466 328.025600
    734    732    735     1   109.5600471 388.275200
    735    744    745     1   109.5600471 388.275200
    735    744    746     1   109.5600471 388.275200
    736    735    744     1   109.8000471 387.438400
    736    735    737     1   107.5800459 329.699200
    737    735    744     1   109.8000471 387.438400
    738    750    751     1   109.5600471 388.275200
    738    750    752     1   109.5600471 388.275200
    739    738    750     1   109.8000471 387.438400
    739    738    740     1   107.5800459 329.699200
    740    738    750     1   109.8000471 387.438400
    741    747    748     1   109.5600471 388.275200
    741    747    749     1   109.5600471 388.275200
    742    741    747     1   109.8000471 387.438400
    742    741    743     1   107.5800459 329.699200
    743    741    747     1   109.8000471 387.438400
    745    744    753     1   109.7800468 425.094400
    745    744    746     1   108.4600466 328.025600
    746    744    753     1   109.7800468 425.094400
    748    747   1536     1   109.7800468 425.094400
    748    747    749     1   108.4600466 328.025600
    749    747   1536     1   109.7800468 425.094400
    751    750   1565     1   109.7800468 425.094400
    751    750    752     1   108.4600466 328.025600
    752    750   1565     1   109.7800468 425.094400
    754    755    756     1   109.8800469 414.216000
    754    755    757     1   109.8800469 414.216000
    754    758    759     1   109.8800469 414.216000
    754    758    760     1   109.8800469 414.216000
    754    761    762     1   109.8800469 414.216000
    754    761    763     1   109.8800469 414.216000
    755    767    768     1   109.8000471 387.438400
    755    767    769     1   109.8000471 387.438400
    756    755    767     1   109.5600471 388.275200
    756    755    757     1   108.4600466 328.025600
    757    755    767     1   109.5600471 388.275200
    758    770    771     1   109.8000471 387.438400
    758    770    772     1   109.8000471 387.438400
    759    758    770     1   109.5600471 388.275200
    759    758    760     1   108.4600466 328.025600
    760    758    770     1   109.5600471 388.275200
    761    764    765     1   109.8000471 387.438400
    761    764    766     1   109.8000471 387.438400
    762    761    764     1   109.5600471 388.275200
    762    761    763     1   108.4600466 328.025600
    763    761    764     1   109.5600471 388.275200
    764    773    774     1   109.5600471 388.275200
    764    773    775     1   109.5600471 388.275200
    765    764    773     1   109.8000471 387.438400
    765    764    766     1   107.5800459 329.699200
    766    764    773     1   109.8000471 387.438400
    767    779    780     1   109.5600471 388.275200
    767    779    781     1   109.5600471 388.275200
    768    767    779     1   109.8000471 387.438400
    768    767    769     1   107.5800459 329.699200
    769    767    779     1   109.8000471 387.438400
    770    776    777     1   109.5600471 388.275200
    770    776    778     1   109.5600471 388.275200
    771    770    776     1   109.8000471 387.438400
    771    770    772     1   107.5800459 329.699200
    772    770    776     1   109.8000471 387.438400
    774    773    782     1   109.7800468 425.094400
    774    773    775     1   108.4600466 328.025600
    775    773    782     1   109.7800468 425.094400
    777    776   1594     1   109.7800468 425.094400
    777    776    778     1   108.4600466 328.025600
    778    776   1594     1   109.7800468 425.094400
    780    779   1623     1   109.7800468 425.094400
    780    779    781     1   108.4600466 328.025600
    781    779   1623     1   109.7800468 425.094400
    783    784    785     1   109.8800469 414.216000
    783    784    786     1   109.8800469 414.216000
    783    787    788     1   109.8800469 414.216000
    783    787    789     1   109.8800469 414.216000
    783    790    791     1   109.8800469 414.216000
    783    790    792     1   109.8800469 414.216000
    784    796    797     1   109.8000471 387.438400
    784    796    798     1   109.8000471 387.438400
    785    784    796     1   109.5600471 388.275200
    785    784    786     1   108.4600466 328.025600
    786    784    796     1   109.5600471 388.275200
    787    799    800     1   109.8000471 387.438400
    787    799    801     1   109.8000471 387.438400
    788    787    799     1   109.5600471 388.275200
    788    787    789     1   108.4600466 328.025600
    789    787    799     1   109.5600471 388.275200
    790    793    794     1   109.8000471 387.438400
    790    793    795     1   109.8000471 387.438400
    791    790    793     1   109.5600471 388.275200
    791    790    792     1   108.4600466 328.025600
    792    790    793     1   109.5600471 388.275200
    793    802    803     1   109.5600471 388.275200
    793    802    804     1   109.5600471 388.275200
    794    793    802     1   109.8000471 387.438400
    794    793    795     1   107.5800459 329.699200
    795    793    802     1   109.8000471 387.438400
    796    808    809     1   109.5600471 388.275200
    796    808    810     1   109.5600471 388.275200
    797    796    808     1   109.8000471 387.438400
    797    796    798     1   107.5800459 329.699200
    798    796    808     1   109.8000471 387.438400
    799    805    806     1   109.5600471 388.275200
    799    805    807     1   109.5600471 388.275200
    800    799    805     1   109.8000471 387.438400
    800    799    801     1   107.5800459 329.699200
    801    799    805     1   109.8000471 387.438400
    803    802    811     1   109.7800468 425.094400
    803    802    804     1   108.4600466 328.025600
    804    802    811     1   109.7800468 425.094400
    806    805   1652     1   109.7800468 425.094400
    806    805    807     1   108.4600466 328.025600
    807    805   1652     1   109.7800468 425.094400
    809    808   1681     1   109.7800468 425.094400
    809    808    810     1   108.4600466 328.025600
    810    808   1681     1   109.7800468 425.094400
    812    813    814     1   109.8800469 414.216000
    812    813    815     1   109.8800469 414.216000
    812    816    817     1   109.8800469 414.216000
    812    816    818     1   109.8800469 414.216000
    812    819    820     1   109.8800469 414.216000
    812    819    821     1   109.8800469 414.216000
    813    825    826     1   109.8000471 387.438400
    813    825    827     1   109.8000471 387.438400
    814    813    825     1   109.5600471 388.275200
    814    813    815     1   108.4600466 328.025600
    815    813    825     1   109.5600471 388.275200
    816    828    829     1   109.8000471 387.438400
    816    828    830     1   109.8000471 387.438400
    817    816    828     1   109.5600471 388.275200
    817    816    818     1   108.4600466 328.025600
    818    816    828     1   109.5600471 388.275200
    819    822    823     1   109.8000471 387.438400
    819    822    824     1   109.8000471 387.438400
    820    819    822     1   109.5600471 388.275200
    820    819    821     1   108.4600466 328.025600
    821    819    822     1   109.5600471 388.275200
    822    831    832     1   109.5600471 388.275200
    822    831    833     1   109.5600471 388.275200
    823    822    831     1   109.8000471 387.438400
    823    822    824     1   107.5800459 329.699200
    824    822    831     1   109.8000471 387.438400
    825    837    838     1   109.5600471 388.275200
    825    837    839     1   109.5600471 388.275200
    826    825    837     1   109.8000471 387.438400
    826    825    827     1   107.5800459 329.699200
    827    825    837     1   109.8000471 387.438400
    828    834    835     1   109.5600471 388.275200
    828    834    836     1   109.5600471 388.275200
    829    828    834     1   109.8000471 387.438400
    829    828    830     1   107.5800459 329.699200
    830    828    834     1   109.8000471 387.438400
    832    831    840     1   109.7800468 425.094400
    832    831    833     1   108.4600466 328.025600
    833    831    840     1   109.7800468 425.094400
    835    834   1710     1   109.7800468 425.094400
    835    834    836     1   108.4600466 328.025600
    836    834   1710     1   109.7800468 425.094400
    838    837   1739     1   109.7800468 425.094400
    838    837    839     1   108.4600466 328.025600
    839    837   1739     1   109.7800468 425.094400
    841    842    843     1   109.8800469 414.216000
    841    842    844     1   109.8800469 414.216000
    841    845    846     1   109.8800469 414.216000
    841    845    847     1   109.8800469 414.216000
    841    848    849     1   109.8800469 414.216000
    841    848    850     1   109.8800469 414.216000
    842    854    855     1   109.8000471 387.438400
    842    854    856     1   109.8000471 387.438400
    843    842    854     1   109.5600471 388.275200
    843    842    844     1   108.4600466 328.025600
    844    842    854     1   109.5600471 388.275200
    845    857    858     1   109.8000471 387.438400
    845    857    859     1   109.8000471 387.438400
    846    845    857     1   109.5600471 388.275200
    846    845    847     1   108.4600466 328.025600
    847    845    857     1   109.5600471 388.275200
    848    851    852     1   109.8000471 387.438400
    848    851    853     1   109.8000471 387.438400
    849    848    851     1   109.5600471 388.275200
    849    848    850     1   108.4600466 328.025600
    850    848    851     1   109.5600471 388.275200
    851    860    861     1   109.5600471 388.275200
    851    860    862     1   109.5600471 388.275200
    852    851    860     1   109.8000471 387.438400
    852    851    853     1   107.5800459 329.699200
    853    851    860     1   109.8000471 387.438400
    854    866    867     1   109.5600471 388.275200
    854    866    868     1   109.5600471 388.275200
    855    854    866     1   109.8000471 387.438400
    855    854    856     1   107.5800459 329.699200
    856    854    866     1   109.8000471 387.438400
    857    863    864     1   109.5600471 388.275200
    857    863    865     1   109.5600471 388.275200
    858    857    863     1   109.8000471 387.438400
    858    857    859     1   107.5800459 329.699200
    859    857    863     1   109.8000471 387.438400
    861    860    869     1   109.7800468 425.094400
    861    860    862     1   108.4600466 328.025600
    862    860    869     1   109.7800468 425.094400
    864    863   1768     1   109.7800468 425.094400
    864    863    865     1   108.4600466 328.025600
    865    863   1768     1   109.7800468 425.094400
    867    866   1797     1   109.7800468 425.094400
    867    866    868     1   108.4600466 328.025600
    868    866   1797     1   109.7800468 425.094400
    870    871    872     1   109.8800469 414.216000
    870    871    873     1   109.8800469 414.216000
    870    874    875     1   109.8800469 414.216000
    870    874    876     1   109.8800469 414.216000
    870    877    878     1   109.8800469 414.216000
    870    877    879     1   109.8800469 414.216000
    871    883    884     1   109.8000471 387.438400
    871    883    885     1   109.8000471 387.438400
    872    871    883     1   109.5600471 388.275200
    872    871    873     1   108.4600466 328.025600
    873    871    883     1   109.5600471 388.275200
    874    886    887     1   109.8000471 387.438400
    874    886    888     1   109.8000471 387.438400
    875    874    886     1   109.5600471 388.275200
    875    874    876     1   108.4600466 328.025600
    876    874    886     1   109.5600471 388.275200
    877    880    881     1   109.8000471 387.438400
    877    880    882     1   109.8000471 387.438400
    878    877    880     1   109.5600471 388.275200
    878    877    879     1   108.4600466 328.025600
    879    877    880     1   109.5600471 388.275200
    880    889    890     1   109.5600471 388.275200
    880    889    891     1   109.5600471 388.275200
    881    880    889     1   109.8000471 387.438400
    881    880    882     1   107.5800459 329.699200
    882    880    889     1   109.8000471 387.438400
    883    895    896     1   109.5600471 388.275200
    883    895    897     1   109.5600471 388.275200
    884    883    895     1   109.8000471 387.438400
    884    883    885     1   107.5800459 329.699200
    885    883    895     1   109.8000471 387.438400
    886    892    893     1   109.5600471 388.275200
    886    892    894     1   109.5600471 388.275200
    887    886    892     1   109.8000471 387.438400
    887    886    888     1   107.5800459 329.699200
    888    886    892     1   109.8000471 387.438400
    890    889    898     1   109.7800468 425.094400
    890    889    891     1   108.4600466 328.025600
    891    889    898     1   109.7800468 425.094400
    893    892   1826     1   109.7800468 425.094400
    893    892    894     1   108.4600466 328.025600
    894    892   1826     1   109.7800468 425.094400
    896    895   1855     1   109.7800468 425.094400
    896    895    897     1   108.4600466 328.025600
    897    895   1855     1   109.7800468 425.094400
    899    900    901     1   109.8800469 414.216000
    899    900    902     1   109.8800469 414.216000
    899    903    904     1   109.8800469 414.216000
    899    903    905     1   109.8800469 414.216000
    899    906    907     1   109.8800469 414.216000
    899    906    908     1   109.8800469 414.216000
    900    912    913     1   109.8000471 387.438400
    900    912    914     1   109.8000471 387.438400
    901    900    912     1   109.5600471 388.275200
    901    900    902     1   108.4600466 328.025600
    902    900    912     1   109.5600471 388.275200
    903    915    916     1   109.8000471 387.438400
    903    915    917     1   109.8000471 387.438400
    904    903    915     1   109.5600471 388.275200
    904    903    905     1   108.4600466 328.025600
    905    903    915     1   109.5600471 388.275200
    906    909    910     1   109.8000471 387.438400
    906    909    911     1   109.8000471 387.438400
    907    906    909     1   109.5600471 388.275200
    907    906    908     1   108.4600466 328.025600
    908    906    909     1   109.5600471 388.275200
    909    918    919     1   109.5600471 388.275200
    909    918    920     1   109.5600471 388.275200
    910    909    918     1   109.8000471 387.438400
    910    909    911     1   107.5800459 329.699200
    911    909    918     1   109.8000471 387.438400
    912    924    925     1   109.5600471 388.275200
    912    924    926     1   109.5600471 388.275200
    913    912    924     1   109.8000471 387.438400
    913    912    914     1   107.5800459 329.699200
    914    912    924     1   109.8000471 387.438400
    915    921    922     1   109.5600471 388.275200
    915    921    923     1   109.5600471 388.275200
    916    915    921     1   109.8000471 387.438400
    916    915    917     1   107.5800459 329.699200
    917    915    921     1   109.8000471 387.438400
    919    918    927     1   109.7800468 425.094400
    919    918    920     1   108.4600466 328.025600
    920    918    927     1   109.7800468 425.094400
    922    921   1884     1   109.7800468 425.094400
    922    921    923     1   108.4600466 328.025600
    923    921   1884     1   109.7800468 425.094400
    925    924   1913     1   109.7800468 425.094400
    925    924    926     1   108.4600466 328.025600
    926    924   1913     1   109.7800468 425.094400
    928    929    930     1   109.8800469 414.216000
    928    929    931     1   109.8800469 414.216000
    928    932    933     1   109.8800469 414.216000
    928    932    934     1   109.8800469 414.216000
    928    935    936     1   109.8800469 414.216000
    928    935    937     1   109.8800469 414.216000
    929    941    942     1   109.8000471 387.438400
    929    941    943     1   109.8000471 387.438400
    930    929    941     1   109.5600471 388.275200
    930    929    931     1   108.4600466 328.025600
    931    929    941     1   109.5600471 388.275200
    932    944    945     1   109.8000471 387.438400
    932    944    946     1   109.8000471 387.438400
    933    932    944     1   109.5600471 388.275200
    933    932    934     1   108.4600466 328.025600
    934    932    944     1   109.5600471 388.275200
    935    938    939     1   109.8000471 387.438400
    935    938    940     1   109.8000471 387.438400
    936    935    938     1   109.5600471 388.275200
    936    935    937     1   108.4600466 328.025600
    937    935    938     1   109.5600471 388.275200
    938    947    948     1   109.5600471 388.275200
    938    947    949     1   109.5600471 388.275200
    939    938    947     1   109.8000471 387.438400
    939    938    940     1   107.5800459 329.699200
    940    938    947     1   109.8000471 387.438400
    941    953    954     1   109.5600471 388.275200
    941    953    955     1   109.5600471 388.275200
    942    941    953     1   109.8000471 387.438400
    942    941    943     1   107.5800459 329.699200
    943    941    953     1   109.8000471 387.438400
    944    950    951     1   109.5600471 388.275200
    944    950    952     1   109.5600471 388.275200
    945    944    950     1   109.8000471 387.438400
    945    944    946     1   107.5800459 329.699200
    946    944    950     1   109.8000471 387.438400
    948    947    956     1   109.7800468 425.094400
    948    947    949     1   108.4600466 328.025600
    949    947    956     1   109.7800468 425.094400
    951    950   1942     1   109.7800468 425.094400
    951    950    952     1   108.4600466 328.025600
    952    950   1942     1   109.7800468 425.094400
    954    953   1971     1   109.7800468 425.094400
    954    953    955     1   108.4600466 328.025600
    955    953   1971     1   109.7800468 425.094400
    957    958    959     1   109.8800469 414.216000
    957    958    960     1   109.8800469 414.216000
    957    961    962     1   109.8800469 414.216000
    957    961    963     1   109.8800469 414.216000
    957    964    965     1   109.8800469 414.216000
    957    964    966     1   109.8800469 414.216000
    958    970    971     1   109.8000471 387.438400
    958    970    972     1   109.8000471 387.438400
    959    958    970     1   109.5600471 388.275200
    959    958    960     1   108.4600466 328.025600
    960    958    970     1   109.5600471 388.275200
    961    973    974     1   109.8000471 387.438400
    961    973    975     1   109.8000471 387.438400
    962    961    973     1   109.5600471 388.275200
    962    961    963     1   108.4600466 328.025600
    963    961    973     1   109.5600471 388.275200
    964    967    968     1   109.8000471 387.438400
    964    967    969     1   109.8000471 387.438400
    965    964    967     1   109.5600471 388.275200
    965    964    966     1   108.4600466 328.025600
    966    964    967     1   109.5600471 388.275200
    967    976    977     1   109.5600471 388.275200
    967    976    978     1   109.5600471 388.275200
    968    967    976     1   109.8000471 387.438400
    968    967    969     1   107.5800459 329.699200
    969    967    976     1   109.8000471 387.438400
    970    982    983     1   109.5600471 388.275200
    970    982    984     1   109.5600471 388.275200
    971    970    982     1   109.8000471 387.438400
    971    970    972     1   107.5800459 329.699200
    972    970    982     1   109.8000471 387.438400
    973    979    980     1   109.5600471 388.275200
    973    979    981     1   109.5600471 388.275200
    974    973    979     1   109.8000471 387.438400
    974    973    975     1   107.5800459 329.699200
    975    973    979     1   109.8000471 387.438400
    977    976    985     1   109.7800468 425.094400
    977    976    978     1   108.4600466 328.025600
    978    976    985     1   109.7800468 425.094400
    980    979   2000     1   109.7800468 425.094400
    980    979    981     1   108.4600466 328.025600
    981    979   2000     1   109.7800468 425.094400
    983    982   2029     1   109.7800468 425.094400
    983    982    984     1   108.4600466 328.025600
    984    982   2029     1   109.7800468 425.094400
    986    987    988     1   109.8800469 414.216000
    986    987    989     1   109.8800469 414.216000
    986    990    991     1   109.8800469 414.216000
    986    990    992     1   109.8800469 414.216000
    986    993    994     1   109.8800469 414.216000
    986    993    995     1   109.8800469 414.216000
    987    999   1000     1   109.8000471 387.438400
    987    999   1001     1   109.8000471 387.438400
    988    987    999     1   109.5600471 388.275200
    988    987    989     1   108.4600466 328.025600
    989    987    999     1   109.5600471 388.275200
    990   1002   1003     1   109.8000471 387.438400
    990   1002   1004     1   109.8000471 387.438400
    991    990   1002     1   109.5600471 388.275200
    991    990    992     1   108.4600466 328.025600
    992    990   1002     1   109.5600471 388.275200
    993    996    997     1   109.8000471 387.438400
    993    996    998     1   109.8000471 387.438400
    994    993    996     1   109.5600471 388.275200
    994    993    995     1   108.4600466 328.025600
    995    993    996     1   109.5600471 388.275200
    996   1005   1006     1   109.5600471 388.275200
    996   1005   1007     1   109.5600471 388.275200
    997    996   1005     1   109.8000471 387.438400
    997    996    998     1   107.5800459 329.699200
    998    996   1005     1   109.8000471 387.438400
    999   1011   1012     1   109.5600471 388.275200
    999   1011   1013     1   109.5600471 388.275200
   1000    999   1011     1   109.8000471 387.438400
   1000    999   1001     1   107.5800459 329.699200
   1001    999   1011     1   109.8000471 387.438400
   1002   1008   1009     1   109.5600471 388.275200
   1002   1008   1010     1   109.5600471 388.275200
   1003   1002   1008     1   109.8000471 387.438400
   1003   1002   1004     1   107.5800459 329.699200
   1004   1002   1008     1   109.8000471 387.438400
   1006   1005   1014     1   109.7800468 425.094400
   1006   1005   1007     1   108.4600466 328.025600
   1007   1005   1014     1   109.7800468 425.094400
   1009   1008   2058     1   109.7800468 425.094400
   1009   1008   1010     1   108.4600466 328.025600
   1010   1008   2058     1   109.7800468 425.094400
   1012   1011   2087     1   109.7800468 425.094400
   1012   1011   1013     1   108.4600466 328.025600
   1013   1011   2087     1   109.7800468 425.094400
   1015   1016   1017     1   109.8800469 414.216000
   1015   1016   1018     1   109.8800469 414.216000
   1015   1019   1020     1   109.8800469 414.216000
   1015   1019   1021     1   109.8800469 414.216000
   1015   1022   1023     1   109.8800469 414.216000
   1015   1022   1024     1   109.8800469 414.216000
   1016   1028   1029     1   109.8000471 387.438400
   1016   1028   1030     1   109.8000471 387.438400
   1017   1016   1028     1   109.5600471 388.275200
   1017   1016   1018     1   108.4600466 328.025600
   1018   1016   1028     1   109.5600471 388.275200
   1019   1031   1032     1   109.8000471 387.438400
   1019   1031   1033     1   109.8000471 387.438400
   1020   1019   1031     1   109.5600471 388.275200
   1020   1019   1021     1   108.4600466 328.025600
   1021   1019   1031     1   109.5600471 388.275200
   1022   1025   1026     1   109.8000471 387.438400
   1022   1025   1027     1   109.8000471 387.438400
   1023   1022   1025     1   109.5600471 388.275200
   1023   1022   1024     1   108.4600466 328.025600
   1024   1022   1025     1   109.5600471 388.275200
   1025   1034   1035     1   109.5600471 388.275200
   1025   1034   1036     1   109.5600471 388.275200
   1026   1025   1034     1   109.8000471 387.438400
   1026   1025   1027     1   107.5800459 329.699200
   1027   1025   1034     1   109.8000471 387.438400
   1028   1040   1041     1   109.5600471 388.275200
   1028   1040   1042     1   109.5600471 388.275200
   1029   1028   1040     1   109.8000471 387.438400
   1029   1028   1030     1   107.5800459 329.699200
   1030   1028   1040     1   109.8000471 387.438400
   1031   1037   1038     1   109.5600471 388.275200
   1031   1037   1039     1   109.5600471 388.275200
   1032   1031   1037     1   109.8000471 387.438400
   1032   1031   1033     1   107.5800459 329.699200
   1033   1031   1037     1   109.8000471 387.438400
   1035   1034   1043     1   109.7800468 425.094400
   1035   1034   1036     1   108.4600466 328.025600
   1036   1034   1043     1   109.7800468 425.094400
   1038   1037   2116     1   109.7800468 425.094400
   1038   1037   1039     1   108.4600466 328.025600
   1039   1037   2116     1   109.7800468 425.094400
   1041   1040   2145     1   109.7800468 425.094400
   1041   1040   1042     1   108.4600466 328.025600
   1042   1040   2145     1   109.7800468 425.094400
   1044   1045   1046     1   109.8800469 414.216000
   1044   1045   1047     1   109.8800469 414.216000
   1044   1048   1049     1   109.8800469 414.216000
   1044   1048   1050     1   109.8800469 414.216000
   1044   1051   1052     1   109.8800469 414.216000
   1044   1051   1053     1   109.8800469 414.216000
   1045   1057   1058     1   109.8000471 387.438400
   1045   1057   1059     1   109.8000471 387.438400
   1046   1045   1057     1   109.5600471 388.275200
   1046   1045   1047     1   108.4600466 328.025600
   1047   1045   1057     1   109.5600471 388.275200
   1048   1060   1061     1   109.8000471 387.438400
   1048   1060   1062     1   109.8000471 387.438400
   1049   1048   1060     1   109.5600471 388.275200
   1049   1048   1050     1   108.4600466 328.025600
   1050   1048   1060     1   109.5600471 388.275200
   1051   1054   1055     1   109.8000471 387.438400
   1051   1054   1056     1   109.8000471 387.438400
   1052   1051   1054     1   109.5600471 388.275200
   1052   1051   1053     1   108.4600466 328.025600
   1053   1051   1054     1   109.5600471 388.275200
   1054   1063   1064     1   109.5600471 388.275200
   1054   1063   1065     1   109.5600471 388.275200
   1055   1054   1063     1   109.8000471 387.438400
   1055   1054   1056     1   107.5800459 329.699200
   1056   1054   1063     1   109.8000471 387.438400
   1057   1069   1070     1   109.5600471 388.275200
   1057   1069   1071     1   109.5600471 388.275200
   1058   1057   1069     1   109.8000471 387.438400
   1058   1057   1059     1   107.5800459 329.699200
   1059   1057   1069     1   109.8000471 387.438400
   1060   1066   1067     1   109.5600471 388.275200
   1060   1066   1068     1   109.5600471 388.275200
   1061   1060   1066     1   109.8000471 387.438400
   1061   1060   1062     1   107.5800459 329.699200
   1062   1060   1066     1   109.8000471 387.438400
   1064   1063   1072     1   109.7800468 425.094400
   1064   1063   1065     1   108.4600466 328.025600
   1065   1063   1072     1   109.7800468 425.094400
   1067   1066   2174     1   109.7800468 425.094400
   1067   1066   1068     1   108.4600466 328.025600
   1068   1066   2174     1   109.7800468 425.094400
   1070   1069   2203     1   109.7800468 425.094400
   1070   1069   1071     1   108.4600466 328.025600
   1071   1069   2203     1   109.7800468 425.094400
   1073   1074   1075     1   109.8800469 414.216000
   1073   1074   1076     1   109.8800469 414.216000
   1073   1077   1078     1   109.8800469 414.216000
   1073   1077   1079     1   109.8800469 414.216000
   1073   1080   1081     1   109.8800469 414.216000
   1073   1080   1082     1   109.8800469 414.216000
   1074   1086   1087     1   109.8000471 387.438400
   1074   1086   1088     1   109.8000471 387.438400
   1075   1074   1086     1   109.5600471 388.275200
   1075   1074   1076     1   108.4600466 328.025600
   1076   1074   1086     1   109.5600471 388.275200
   1077   1089   1090     1   109.8000471 387.438400
   1077   1089   1091     1   109.8000471 387.438400
   1078   1077   1089     1   109.5600471 388.275200
   1078   1077   1079     1   108.4600466 328.025600
   1079   1077   1089     1   109.5600471 388.275200
   1080   1083   1084     1   109.8000471 387.438400
   1080   1083   1085     1   109.8000471 387.438400
   1081   1080   1083     1   109.5600471 388.275200
   1081   1080   1082     1   108.4600466 328.025600
   1082   1080   1083     1   109.5600471 388.275200
   1083   1092   1093     1   109.5600471 388.275200
   1083   1092   1094     1   109.5600471 388.275200
   1084   1083   1092     1   109.8000471 387.438400
   1084   1083   1085     1   107.5800459 329.699200
   1085   1083   1092     1   109.8000471 387.438400
   1086   1098   1099     1   109.5600471 388.275200
   1086   1098   1100     1   109.5600471 388.275200
   1087   1086   1098     1   109.8000471 387.438400
   1087   1086   1088     1   107.5800459 329.699200
   1088   1086   1098     1   109.8000471 387.438400
   1089   1095   1096     1   109.5600471 388.275200
   1089   1095   1097     1   109.5600471 388.275200
   1090   1089   1095     1   109.8000471 387.438400
   1090   1089   1091     1   107.5800459 329.699200
   1091   1089   1095     1   109.8000471 387.438400
   1093   1092   1101     1   109.7800468 425.094400
   1093   1092   1094     1   108.4600466 328.025600
   1094   1092   1101     1   109.7800468 425.094400
   1096   1095   2232     1   109.7800468 425.094400
   1096   1095   1097     1   108.4600466 328.025600
   1097   1095   2232     1   109.7800468 425.094400
   1099   1098   2261     1   109.7800468 425.094400
   1099   1098   1100     1   108.4600466 328.025600
   1100   1098   2261     1   109.7800468 425.094400
   1102   1103   1104     1   109.8800469 414.216000
   1102   1103   1105     1   109.8800469 414.216000
   1102   1106   1107     1   109.8800469 414.216000
   1102   1106   1108     1   109.8800469 414.216000
   1102   1109   1110     1   109.8800469 414.216000
   1102   1109   1111     1   109.8800469 414.216000
   1103   1115   1116     1   109.8000471 387.438400
   1103   1115   1117     1   109.8000471 387.438400
   1104   1103   1115     1   109.5600471 388.275200
   1104   1103   1105     1   108.4600466 328.025600
   1105   1103   1115     1   109.5600471 388.275200
   1106   1118   1119     1   109.8000471 387.438400
   1106   1118   1120     1   109.8000471 387.438400
   1107   1106   1118     1   109.5600471 388.275200
   1107   1106   1108     1   108.4600466 328.025600
   1108   1106   1118     1   109.5600471 388.275200
   1109   1112   1113     1   109.8000471 387.438400
   1109   1112   1114     1   109.8000471 387.438400
   1110   1109   1112     1   109.5600471 388.275200
   1110   1109   1111     1   108.4600466 328.025600
   1111   1109   1112     1   109.5600471 388.275200
   1112   1121   1122     1   109.5600471 388.275200
   1112   1121   1123     1   109.5600471 388.275200
   1113   1112   1121     1   109.8000471 387.438400
   1113   1112   1114     1   107.5800459 329.699200
   1114   1112   1121     1   109.8000471 387.438400
   1115   1127   1128     1   109.5600471 388.275200
   1115   1127   1129     1   109.5600471 388.275200
   1116   1115   1127     1   109.8000471 387.438400
   1116   1115   1117     1   107.5800459 329.699200
   1117   1115   1127     1   109.8000471 387.438400
   1118   1124   1125     1   109.5600471 388.275200
   1118   1124   1126     1   109.5600471 388.275200
   1119   1118   1124     1   109.8000471 387.438400
   1119   1118   1120     1   107.5800459 329.699200
   1120   1118   1124     1   109.8000471 387.438400
   1122   1121   1130     1   109.7800468 425.094400
   1122   1121   1123     1   108.4600466 328.025600
   1123   1121   1130     1   109.7800468 425.094400
   1125   1124   2290     1   109.7800468 425.094400
   1125   1124   1126     1   108.4600466 328.025600
   1126   1124   2290     1   109.7800468 425.094400
   1128   1127   2319     1   109.7800468 425.094400
   1128   1127   1129     1   108.4600466 328.025600
   1129   1127   2319     1   109.7800468 425.094400
   1131   1132   1133     1   109.8800469 414.216000
   1131   1132   1134     1   109.8800469 414.216000
   1131   1135   1136     1   109.8800469 414.216000
   1131   1135   1137     1   109.8800469 414.216000
   1131   1138   1139     1   109.8800469 414.216000
   1131   1138   1140     1   109.8800469 414.216000
   1132   1144   1145     1   109.8000471 387.438400
   1132   1144   1146     1   109.8000471 387.438400
   1133   1132   1144     1   109.5600471 388.275200
   1133   1132   1134     1   108.4600466 328.025600
   1134   1132   1144     1   109.5600471 388.275200
   1135   1147   1148     1   109.8000471 387.438400
   1135   1147   1149     1   109.8000471 387.438400
   1136   1135   1147     1   109.5600471 388.275200
   1136   1135   1137     1   108.4600466 328.025600
   1137   1135   1147     1   109.5600471 388.275200
   1138   1141   1142     1   109.8000471 387.438400
   1138   1141   1143     1   109.8000471 387.438400
   1139   1138   1141     1   109.5600471 388.275200
   1139   1138   1140     1   108.4600466 328.025600
   1140   1138   1141     1   109.5600471 388.275200
   1141   1150   1151     1   109.5600471 388.275200
   1141   1150   1152     1   109.5600471 388.275200
   1142   1141   1150     1   109.8000471 387.438400
   1142   1141   1143     1   107.5800459 329.699200
   1143   1141   1150     1   109.8000471 387.438400
   1144   1156   1157     1   109.5600471 388.275200
   1144   1156   1158     1   109.5600471 388.275200
   1145   1144   1156     1   109.8000471 387.438400
   1145   1144   1146     1   107.5800459 329.699200
   1146   1144   1156     1   109.8000471 387.438400
   1147   1153   1154     1   109.5600471 388.275200
   1147   1153   1155     1   109.5600471 388.275200
   1148   1147   1153     1   109.8000471 387.438400
   1148   1147   1149     1   107.5800459 329.699200
   1149   1147   1153     1   109.8000471 387.438400
   1151   1150   1159     1   109.7800468 425.094400
   1151   1150   1152     1   108.4600466 328.025600
   1152   1150   1159     1   109.7800468 425.094400
   1154   1153   2348     1   109.7800468 425.094400
   1154   1153   1155     1   108.4600466 328.025600
   1155   1153   2348     1   109.7800468 425.094400
   1157   1156   2377     1   109.7800468 425.094400
   1157   1156   1158     1   108.4600466 328.025600
   1158   1156   2377     1   109.7800468 425.094400
   1160   1161   1162     1   109.8800469 414.216000
   1160   1161   1163     1   109.8800469 414.216000
   1160   1164   1165     1   109.8800469 414.216000
   1160   1164   1166     1   109.8800469 414.216000
   1160   1167   1168     1   109.8800469 414.216000
   1160   1167   1169     1   109.8800469 414.216000
   1161   1173   1174     1   109.8000471 387.438400
   1161   1173   1175     1   109.8000471 387.438400
   1162   1161   1173     1   109.5600471 388.275200
   1162   1161   1163     1   108.4600466 328.025600
   1163   1161   1173     1   109.5600471 388.275200
   1164   1176   1177     1   109.8000471 387.438400
   1164   1176   1178     1   109.8000471 387.438400
   1165   1164   1176     1   109.5600471 388.275200
   1165   1164   1166     1   108.4600466 328.025600
   1166   1164   1176     1   109.5600471 388.275200
   1167   1170   1171     1   109.8000471 387.438400
   1167   1170   1172     1   109.8000471 387.438400
   1168   1167   1170     1   109.5600471 388.275200
   1168   1167   1169     1   108.4600466 328.025600
   1169   1167   1170     1   109.5600471 388.275200
   1170   1179   1180     1   109.5600471 388.275200
   1170   1179   1181     1   109.5600471 388.275200
   1171   1170   1179     1   109.8000471 387.438400
   1171   1170   1172     1   107.5800459 329.699200
   1172   1170   1179     1   109.8000471 387.438400
   1173   1185   1186     1   109.5600471 388.275200
   1173   1185   1187     1   109.5600471 388.275200
   1174   1173   1185     1   109.8000471 387.438400
   1174   1173   1175     1   107.5800459 329.699200
   1175   1173   1185     1   109.8000471 387.438400
   1176   1182   1183     1   109.5600471 388.275200
   1176   1182   1184     1   109.5600471 388.275200
   1177   1176   1182     1   109.8000471 387.438400
   1177   1176   1178     1   107.5800459 329.699200
   1178   1176   1182     1   109.8000471 387.438400
   1180   1179   1188     1   109.7800468 425.094400
   1180   1179   1181     1   108.4600466 328.025600
   1181   1179   1188     1   109.7800468 425.094400
   1183   1182   2406     1   109.7800468 425.094400
   1183   1182   1184     1   108.4600466 328.025600
   1184   1182   2406     1   109.7800468 425.094400
   1186   1185   2435     1   109.7800468 425.094400
   1186   1185   1187     1   108.4600466 328.025600
   1187   1185   2435     1   109.7800468 425.094400
   1189   1190   1191     1   109.8800469 414.216000
   1189   1190   1192     1   109.8800469 414.216000
   1189   1193   1194     1   109.8800469 414.216000
   1189   1193   1195     1   109.8800469 414.216000
   1189   1196   1197     1   109.8800469 414.216000
   1189   1196   1198     1   109.8800469 414.216000
   1190   1202   1203     1   109.8000471 387.438400
   1190   1202   1204     1   109.8000471 387.438400
   1191   1190   1202     1   109.5600471 388.275200
   1191   1190   1192     1   108.4600466 328.025600
   1192   1190   1202     1   109.5600471 388.275200
   1193   1205   1206     1   109.8000471 387.438400
   1193   1205   1207     1   109.8000471 387.438400
   1194   1193   1205     1   109.5600471 388.275200
   1194   1193   1195     1   108.4600466 328.025600
   1195   1193   1205     1   109.5600471 388.275200
   1196   1199   1200     1   109.8000471 387.438400
   1196   1199   1201     1   109.8000471 387.438400
   1197   1196   1199     1   109.5600471 388.275200
   1197   1196   1198     1   108.4600466 328.025600
   1198   1196   1199     1   109.5600471 388.275200
   1199   1208   1209     1   109.5600471 388.275200
   1199   1208   1210     1   109.5600471 388.275200
   1200   1199   1208     1   109.8000471 387.438400
   1200   1199   1201     1   107.5800459 329.699200
   1201   1199   1208     1   109.8000471 387.438400
   1202   1214   1215     1   109.5600471 388.275200
   1202   1214   1216     1   109.5600471 388.275200
   1203   1202   1214     1   109.8000471 387.438400
   1203   1202   1204     1   107.5800459 329.699200
   1204   1202   1214     1   109.8000471 387.438400
   1205   1211   1212     1   109.5600471 388.275200
   1205   1211   1213     1   109.5600471 388.275200
   1206   1205   1211     1   109.8000471 387.438400
   1206   1205   1207     1   107.5800459 329.699200
   1207   1205   1211     1   109.8000471 387.438400
   1209   1208   1217     1   109.7800468 425.094400
   1209   1208   1210     1   108.4600466 328.025600
   1210   1208   1217     1   109.7800468 425.094400
   1212   1211   2464     1   109.7800468 425.094400
   1212   1211   1213     1   108.4600466 328.025600
   1213   1211   2464     1   109.7800468 425.094400
   1215   1214   2493     1   109.7800468 425.094400
   1215   1214   1216     1   108.4600466 328.025600
   1216   1214   2493     1   109.7800468 425.094400
   1218   1219   1220     1   109.8800469 414.216000
   1218   1219   1221     1   109.8800469 414.216000
   1218   1222   1223     1   109.8800469 414.216000
   1218   1222   1224     1   109.8800469 414.216000
   1218   1225   1226     1   109.8800469 414.216000
   1218   1225   1227     1   109.8800469 414.216000
   1219   1231   1232     1   109.8000471 387.438400
   1219   1231   1233     1   109.8000471 387.438400
   1220   1219   1231     1   109.5600471 388.275200
   1220   1219   1221     1   108.4600466 328.025600
   1221   1219   1231     1   109.5600471 388.275200
   1222   1234   1235     1   109.8000471 387.438400
   1222   1234   1236     1   109.8000471 387.438400
   1223   1222   1234     1   109.5600471 388.275200
   1223   1222   1224     1   108.4600466 328.025600
   1224   1222   1234     1   109.5600471 388.275200
   1225   1228   1229     1   109.8000471 387.438400
   1225   1228   1230     1   109.8000471 387.438400
   1226   1225   1228     1   109.5600471 388.275200
   1226   1225   1227     1   108.4600466 328.025600
   1227   1225   1228     1   109.5600471 388.275200
   1228   1237   1238     1   109.5600471 388.275200
   1228   1237   1239     1   109.5600471 388.275200
   1229   1228   1237     1   109.8000471 387.438400
   1229   1228   1230     1   107.5800459 329.699200
   1230   1228   1237     1   109.8000471 387.438400
   1231   1243   1244     1   109.5600471 388.275200
   1231   1243   1245     1   109.5600471 388.275200
   1232   1231   1243     1   109.8000471 387.438400
   1232   1231   1233     1   107.5800459 329.699200
   1233   1231   1243     1   109.8000471 387.438400
   1234   1240   1241     1   109.5600471 388.275200
   1234   1240   1242     1   109.5600471 388.275200
   1235   1234   1240     1   109.8000471 387.438400
   1235   1234   1236     1   107.5800459 329.699200
   1236   1234   1240     1   109.8000471 387.438400
   1238   1237   1246     1   109.7800468 425.094400
   1238   1237   1239     1   108.4600466 328.025600
   1239   1237   1246     1   109.7800468 425.094400
   1241   1240   2522     1   109.7800468 425.094400
   1241   1240   1242     1   108.4600466 328.025600
   1242   1240   2522     1   109.7800468 425.094400
   1244   1243   2551     1   109.7800468 425.094400
   1244   1243   1245     1   108.4600466 328.025600
   1245   1243   2551     1   109.7800468 425.094400
   1247   1248   1249     1   109.8800469 414.216000
   1247   1248   1250     1   109.8800469 414.216000
   1247   1251   1252     1   109.8800469 414.216000
   1247   1251   1253     1   109.8800469 414.216000
   1247   1254   1255     1   109.8800469 414.216000
   1247   1254   1256     1   109.8800469 414.216000
   1248   1260   1261     1   109.8000471 387.438400
   1248   1260   1262     1   109.8000471 387.438400
   1249   1248   1260     1   109.5600471 388.275200
   1249   1248   1250     1   108.4600466 328.025600
   1250   1248   1260     1   109.5600471 388.275200
   1251   1263   1264     1   109.8000471 387.438400
   1251   1263   1265     1   109.8000471 387.438400
   1252   1251   1263     1   109.5600471 388.275200
   1252   1251   1253     1   108.4600466 328.025600
   1253   1251   1263     1   109.5600471 388.275200
   1254   1257   1258     1   109.8000471 387.438400
   1254   1257   1259     1   109.8000471 387.438400
   1255   1254   1257     1   109.5600471 388.275200
   1255   1254   1256     1   108.4600466 328.025600
   1256   1254   1257     1   109.5600471 388.275200
   1257   1266   1267     1   109.5600471 388.275200
   1257   1266   1268     1   109.5600471 388.275200
   1258   1257   1266     1   109.8000471 387.438400
   1258   1257   1259     1   107.5800459 329.699200
   1259   1257   1266     1   109.8000471 387.438400
   1260   1272   1273     1   109.5600471 388.275200
   1260   1272   1274     1   109.5600471 388.275200
   1261   1260   1272     1   109.8000471 387.438400
   1261   1260   1262     1   107.5800459 329.699200
   1262   1260   1272     1   109.8000471 387.438400
   1263   1269   1270     1   109.5600471 388.275200
   1263   1269   1271     1   109.5600471 388.275200
   1264   1263   1269     1   109.8000471 387.438400
   1264   1263   1265     1   107.5800459 329.699200
   1265   1263   1269     1   109.8000471 387.438400
   1267   1266   1275     1   109.7800468 425.094400
   1267   1266   1268     1   108.4600466 328.025600
   1268   1266   1275     1   109.7800468 425.094400
   1270   1269   2580     1   109.7800468 425.094400
   1270   1269   1271     1   108.4600466 328.025600
   1271   1269   2580     1   109.7800468 425.094400
   1273   1272   2609     1   109.7800468 425.094400
   1273   1272   1274     1   108.4600466 328.025600
   1274   1272   2609     1   109.7800468 425.094400
   1276   1277   1278     1   109.8800469 414.216000
   1276   1277   1279     1   109.8800469 414.216000
   1276   1280   1281     1   109.8800469 414.216000
   1276   1280   1282     1   109.8800469 414.216000
   1276   1283   1284     1   109.8800469 414.216000
   1276   1283   1285     1   109.8800469 414.216000
   1277   1289   1290     1   109.8000471 387.438400
   1277   1289   1291     1   109.8000471 387.438400
   1278   1277   1289     1   109.5600471 388.275200
   1278   1277   1279     1   108.4600466 328.025600
   1279   1277   1289     1   109.5600471 388.275200
   1280   1292   1293     1   109.8000471 387.438400
   1280   1292   1294     1   109.8000471 387.438400
   1281   1280   1292     1   109.5600471 388.275200
   1281   1280   1282     1   108.4600466 328.025600
   1282   1280   1292     1   109.5600471 388.275200
   1283   1286   1287     1   109.8000471 387.438400
   1283   1286   1288     1   109.8000471 387.438400
   1284   1283   1286     1   109.5600471 388.275200
   1284   1283   1285     1   108.4600466 328.025600
   1285   1283   1286     1   109.5600471 388.275200
   1286   1295   1296     1   109.5600471 388.275200
   1286   1295   1297     1   109.5600471 388.275200
   1287   1286   1295     1   109.8000471 387.438400
   1287   1286   1288     1   107.5800459 329.699200
   1288   1286   1295     1   109.8000471 387.438400
   1289   1301   1302     1   109.5600471 388.275200
   1289   1301   1303     1   109.5600471 388.275200
   1290   1289   1301     1   109.8000471 387.438400
   1290   1289   1291     1   107.5800459 329.699200
   1291   1289   1301     1   109.8000471 387.438400
   1292   1298   1299     1   109.5600471 388.275200
   1292   1298   1300     1   109.5600471 388.275200
   1293   1292   1298     1   109.8000471 387.438400
   1293   1292   1294     1   107.5800459 329.699200
   1294   1292   1298     1   109.8000471 387.438400
   1296   1295   1304     1   109.7800468 425.094400
   1296   1295   1297     1   108.4600466 328.025600
   1297   1295   1304     1   109.7800468 425.094400
   1299   1298   2638     1   109.7800468 425.094400
   1299   1298   1300     1   108.4600466 328.025600
   1300   1298   2638     1   109.7800468 425.094400
   1302   1301   2667     1   109.7800468 425.094400
   1302   1301   1303     1   108.4600466 328.025600
   1303   1301   2667     1   109.7800468 425.094400
   1305   1306   1307     1   109.8800469 414.216000
   1305   1306   1308     1   109.8800469 414.216000
   1305   1309   1310     1   109.8800469 414.216000
   1305   1309   1311     1   109.8800469 414.216000
   1305   1312   1313     1   109.8800469 414.216000
   1305   1312   1314     1   109.8800469 414.216000
   1306   1318   1319     1   109.8000471 387.438400
   1306   1318   1320     1   109.8000471 387.438400
   1307   1306   1318     1   109.5600471 388.275200
   1307   1306   1308     1   108.4600466 328.025600
   1308   1306   1318     1   109.5600471 388.275200
   1309   1321   1322     1   109.8000471 387.438400
   1309   1321   1323     1   109.8000471 387.438400
   1310   1309   1321     1   109.5600471 388.275200
   1310   1309   1311     1   108.4600466 328.025600
   1311   1309   1321     1   109.5600471 388.275200
   1312   1315   1316     1   109.8000471 387.438400
   1312   1315   1317     1   109.8000471 387.438400
   1313   1312   1315     1   109.5600471 388.275200
   1313   1312   1314     1   108.4600466 328.025600
   1314   1312   1315     1   109.5600471 388.275200
   1315   1324   1325     1   109.5600471 388.275200
   1315   1324   1326     1   109.5600471 388.275200
   1316   1315   1324     1   109.8000471 387.438400
   1316   1315   1317     1   107.5800459 329.699200
   1317   1315   1324     1   109.8000471 387.438400
   1318   1330   1331     1   109.5600471 388.275200
   1318   1330   1332     1   109.5600471 388.275200
   1319   1318   1330     1   109.8000471 387.438400
   1319   1318   1320     1   107.5800459 329.699200
   1320   1318   1330     1   109.8000471 387.438400
   1321   1327   1328     1   109.5600471 388.275200
   1321   1327   1329     1   109.5600471 388.275200
   1322   1321   1327     1   109.8000471 387.438400
   1322   1321   1323     1   107.5800459 329.699200
   1323   1321   1327     1   109.8000471 387.438400
   1325   1324   1333     1   109.7800468 425.094400
   1325   1324   1326     1   108.4600466 328.025600
   1326   1324   1333     1   109.7800468 425.094400
   1328   1327   2696     1   109.7800468 425.094400
   1328   1327   1329     1   108.4600466 328.025600
   1329   1327   2696     1   109.7800468 425.094400
   1331   1330   2725     1   109.7800468 425.094400
   1331   1330   1332     1   108.4600466 328.025600
   1332   1330   2725     1   109.7800468 425.094400
   1334   1335   1336     1   109.8800469 414.216000
   1334   1335   1337     1   109.8800469 414.216000
   1334   1338   1339     1   109.8800469 414.216000
   1334   1338   1340     1   109.8800469 414.216000
   1334   1341   1342     1   109.8800469 414.216000
   1334   1341   1343     1   109.8800469 414.216000
   1335   1347   1348     1   109.8000471 387.438400
   1335   1347   1349     1   109.8000471 387.438400
   1336   1335   1347     1   109.5600471 388.275200
   1336   1335   1337     1   108.4600466 328.025600
   1337   1335   1347     1   109.5600471 388.275200
   1338   1350   1351     1   109.8000471 387.438400
   1338   1350   1352     1   109.8000471 387.438400
   1339   1338   1350     1   109.5600471 388.275200
   1339   1338   1340     1   108.4600466 328.025600
   1340   1338   1350     1   109.5600471 388.275200
   1341   1344   1345     1   109.8000471 387.438400
   1341   1344   1346     1   109.8000471 387.438400
   1342   1341   1344     1   109.5600471 388.275200
   1342   1341   1343     1   108.4600466 328.025600
   1343   1341   1344     1   109.5600471 388.275200
   1344   1353   1354     1   109.5600471 388.275200
   1344   1353   1355     1   109.5600471 388.275200
   1345   1344   1353     1   109.8000471 387.438400
   1345   1344   1346     1   107.5800459 329.699200
   1346   1344   1353     1   109.8000471 387.438400
   1347   1359   1360     1   109.5600471 388.275200
   1347   1359   1361     1   109.5600471 388.275200
   1348   1347   1359     1   109.8000471 387.438400
   1348   1347   1349     1   107.5800459 329.699200
   1349   1347   1359     1   109.8000471 387.438400
   1350   1356   1357     1   109.5600471 388.275200
   1350   1356   1358     1   109.5600471 388.275200
   1351   1350   1356     1   109.8000471 387.438400
   1351   1350   1352     1   107.5800459 329.699200
   1352   1350   1356     1   109.8000471 387.438400
   1354   1353   1362     1   109.7800468 425.094400
   1354   1353   1355     1   108.4600466 328.025600
   1355   1353   1362     1   109.7800468 425.094400
   1357   1356   2754     1   109.7800468 425.094400
   1357   1356   1358     1   108.4600466 328.025600
   1358   1356   2754     1   109.7800468 425.094400
   1360   1359   2783     1   109.7800468 425.094400
   1360   1359   1361     1   108.4600466 328.025600
   1361   1359   2783     1   109.7800468 425.094400
   1363   1364   1365     1   109.8800469 414.216000
   1363   1364   1366     1   109.8800469 414.216000
   1363   1367   1368     1   109.8800469 414.216000
   1363   1367   1369     1   109.8800469 414.216000
   1363   1370   1371     1   109.8800469 414.216000
   1363   1370   1372     1   109.8800469 414.216000
   1364   1376   1377     1   109.8000471 387.438400
   1364   1376   1378     1   109.8000471 387.438400
   1365   1364   1376     1   109.5600471 388.275200
   1365   1364   1366     1   108.4600466 328.025600
   1366   1364   1376     1   109.5600471 388.275200
   1367   1379   1380     1   109.8000471 387.438400
   1367   1379   1381     1   109.8000471 387.438400
   1368   1367   1379     1   109.5600471 388.275200
   1368   1367   1369     1   108.4600466 328.025600
   1369   1367   1379     1   109.5600471 388.275200
   1370   1373   1374     1   109.8000471 387.438400
   1370   1373   1375     1   109.8000471 387.438400
   1371   1370   1373     1   109.5600471 388.275200
   1371   1370   1372     1   108.4600466 328.025600
   1372   1370   1373     1   109.5600471 388.275200
   1373   1382   1383     1   109.5600471 388.275200
   1373   1382   1384     1   109.5600471 388.275200
   1374   1373   1382     1   109.8000471 387.438400
   1374   1373   1375     1   107.5800459 329.699200
   1375   1373   1382     1   109.8000471 387.438400
   1376   1388   1389     1   109.5600471 388.275200
   1376   1388   1390     1   109.5600471 388.275200
   1377   1376   1388     1   109.8000471 387.438400
   1377   1376   1378     1   107.5800459 329.699200
   1378   1376   1388     1   109.8000471 387.438400
   1379   1385   1386     1   109.5600471 388.275200
   1379   1385   1387     1   109.5600471 388.275200
   1380   1379   1385     1   109.8000471 387.438400
   1380   1379   1381     1   107.5800459 329.699200
   1381   1379   1385     1   109.8000471 387.438400
   1383   1382   1391     1   109.7800468 425.094400
   1383   1382   1384     1   108.4600466 328.025600
   1384   1382   1391     1   109.7800468 425.094400
   1386   1385   2812     1   109.7800468 425.094400
   1386   1385   1387     1   108.4600466 328.025600
   1387   1385   2812     1   109.7800468 425.094400
   1389   1388   2841     1   109.7800468 425.094400
   1389   1388   1390     1   108.4600466 328.025600
   1390   1388   2841     1   109.7800468 425.094400
   1392   1393   1394     1   109.8800469 414.216000
   1392   1393   1395     1   109.8800469 414.216000
   1392   1396   1397     1   109.8800469 414.216000
   1392   1396   1398     1   109.8800469 414.216000
   1392   1399   1400     1   109.8800469 414.216000
   1392   1399   1401     1   109.8800469 414.216000
   1393   1405   1406     1   109.8000471 387.438400
   1393   1405   1407     1   109.8000471 387.438400
   1394   1393   1405     1   109.5600471 388.275200
   1394   1393   1395     1   108.4600466 328.025600
   1395   1393   1405     1   109.5600471 388.275200
   1396   1408   1409     1   109.8000471 387.438400
   1396   1408   1410     1   109.8000471 387.438400
   1397   1396   1408     1   109.5600471 388.275200
   1397   1396   1398     1   108.4600466 328.025600
   1398   1396   1408     1   109.5600471 388.275200
   1399   1402   1403     1   109.8000471 387.438400
   1399   1402   1404     1   109.8000471 387.438400
   1400   1399   1402     1   109.5600471 388.275200
   1400   1399   1401     1   108.4600466 328.025600
   1401   1399   1402     1   109.5600471 388.275200
   1402   1411   1412     1   109.5600471 388.275200
   1402   1411   1413     1   109.5600471 388.275200
   1403   1402   1411     1   109.8000471 387.438400
   1403   1402   1404     1   107.5800459 329.699200
   1404   1402   1411     1   109.8000471 387.438400
   1405   1417   1418     1   109.5600471 388.275200
   1405   1417   1419     1   109.5600471 388.275200
   1406   1405   1417     1   109.8000471 387.438400
   1406   1405   1407     1   107.5800459 329.699200
   1407   1405   1417     1   109.8000471 387.438400
   1408   1414   1415     1   109.5600471 388.275200
   1408   1414   1416     1   109.5600471 388.275200
   1409   1408   1414     1   109.8000471 387.438400
   1409   1408   1410     1   107.5800459 329.699200
   1410   1408   1414     1   109.8000471 387.438400
   1412   1411   1420     1   109.7800468 425.094400
   1412   1411   1413     1   108.4600466 328.025600
   1413   1411   1420     1   109.7800468 425.094400
   1415   1414   2870     1   109.7800468 425.094400
   1415   1414   1416     1   108.4600466 328.025600
   1416   1414   2870     1   109.7800468 425.094400
   1418   1417   2899     1   109.7800468 425.094400
   1418   1417   1419     1   108.4600466 328.025600
   1419   1417   2899     1   109.7800468 425.094400
   1421   1422   1423     1   109.8800469 414.216000
   1421   1422   1424     1   109.8800469 414.216000
   1421   1425   1426     1   109.8800469 414.216000
   1421   1425   1427     1   109.8800469 414.216000
   1421   1428   1429     1   109.8800469 414.216000
   1421   1428   1430     1   109.8800469 414.216000
   1422   1434   1435     1   109.8000471 387.438400
   1422   1434   1436     1   109.8000471 387.438400
   1423   1422   1434     1   109.5600471 388.275200
   1423   1422   1424     1   108.4600466 328.025600
   1424   1422   1434     1   109.5600471 388.275200
   1425   1437   1438     1   109.8000471 387.438400
   1425   1437   1439     1   109.8000471 387.438400
   1426   1425   1437     1   109.5600471 388.275200
   1426   1425   1427     1   108.4600466 328.025600
   1427   1425   1437     1   109.5600471 388.275200
   1428   1431   1432     1   109.8000471 387.438400
   1428   1431   1433     1   109.8000471 387.438400
   1429   1428   1431     1   109.5600471 388.275200
   1429   1428   1430     1   108.4600466 328.025600
   1430   1428   1431     1   109.5600471 388.275200
   1431   1440   1441     1   109.5600471 388.275200
   1431   1440   1442     1   109.5600471 388.275200
   1432   1431   1440     1   109.8000471 387.438400
   1432   1431   1433     1   107.5800459 329.699200
   1433   1431   1440     1   109.8000471 387.438400
   1434   1446   1447     1   109.5600471 388.275200
   1434   1446   1448     1   109.5600471 388.275200
   1435   1434   1446     1   109.8000471 387.438400
   1435   1434   1436     1   107.5800459 329.699200
   1436   1434   1446     1   109.8000471 387.438400
   1437   1443   1444     1   109.5600471 388.275200
   1437   1443   1445     1   109.5600471 388.275200
   1438   1437   1443     1   109.8000471 387.438400
   1438   1437   1439     1   107.5800459 329.699200
   1439   1437   1443     1   109.8000471 387.438400
   1441   1440   1449     1   109.7800468 425.094400
   1441   1440   1442     1   108.4600466 328.025600
   1442   1440   1449     1   109.7800468 425.094400
   1444   1443   2928     1   109.7800468 425.094400
   1444   1443   1445     1   108.4600466 328.025600
   1445   1443   2928     1   109.7800468 425.094400
   1447   1446   2957     1   109.7800468 425.094400
   1447   1446   1448     1   108.4600466 328.025600
   1448   1446   2957     1   109.7800468 425.094400
   1450   1451   1452     1   109.8800469 414.216000
   1450   1451   1453     1   109.8800469 414.216000
   1450   1454   1455     1   109.8800469 414.216000
   1450   1454   1456     1   109.8800469 414.216000
   1450   1457   1458     1   109.8800469 414.216000
   1450   1457   1459     1   109.8800469 414.216000
   1451   1463   1464     1   109.8000471 387.438400
   1451   1463   1465     1   109.8000471 387.438400
   1452   1451   1463     1   109.5600471 388.275200
   1452   1451   1453     1   108.4600466 328.025600
   1453   1451   1463     1   109.5600471 388.275200
   1454   1466   1467     1   109.8000471 387.438400
   1454   1466   1468     1   109.8000471 387.438400
   1455   1454   1466     1   109.5600471 388.275200
   1455   1454   1456     1   108.4600466 328.025600
   1456   1454   1466     1   109.5600471 388.275200
   1457   1460   1461     1   109.8000471 387.438400
   1457   1460   1462     1   109.8000471 387.438400
   1458   1457   1460     1   109.5600471 388.275200
   1458   1457   1459     1   108.4600466 328.025600
   1459   1457   1460     1   109.5600471 388.275200
   1460   1469   1470     1   109.5600471 388.275200
   1460   1469   1471     1   109.5600471 388.275200
   1461   1460   1469     1   109.8000471 387.438400
   1461   1460   1462     1   107.5800459 329.699200
   1462   1460   1469     1   109.8000471 387.438400
   1463   1475   1476     1   109.5600471 388.275200
   1463   1475   1477     1   109.5600471 388.275200
   1464   1463   1475     1   109.8000471 387.438400
   1464   1463   1465     1   107.5800459 329.699200
   1465   1463   1475     1   109.8000471 387.438400
   1466   1472   1473     1   109.5600471 388.275200
   1466   1472   1474     1   109.5600471 388.275200
   1467   1466   1472     1   109.8000471 387.438400
   1467   1466   1468     1   107.5800459 329.699200
   1468   1466   1472     1   109.8000471 387.438400
   1470   1469   1478     1   109.7800468 425.094400
   1470   1469   1471     1   108.4600466 328.025600
   1471   1469   1478     1   109.7800468 425.094400
   1473   1472   2986     1   109.7800468 425.094400
   1473   1472   1474     1   108.4600466 328.025600
   1474   1472   2986     1   109.7800468 425.094400
   1476   1475   3015     1   109.7800468 425.094400
   1476   1475   1477     1   108.4600466 328.025600
   1477   1475   3015     1   109.7800468 425.094400
   1479   1480   1481     1   109.8800469 414.216000
   1479   1480   1482     1   109.8800469 414.216000
   1479   1483   1484     1   109.8800469 414.216000
   1479   1483   1485     1   109.8800469 414.216000
   1479   1486   1487     1   109.8800469 414.216000
   1479   1486   1488     1   109.8800469 414.216000
   1480   1492   1493     1   109.8000471 387.438400
   1480   1492   1494     1   109.8000471 387.438400
   1481   1480   1492     1   109.5600471 388.275200
   1481   1480   1482     1   108.4600466 328.025600
   1482   1480   1492     1   109.5600471 388.275200
   1483   1495   1496     1   109.8000471 387.438400
   1483   1495   1497     1   109.8000471 387.438400
   1484   1483   1495     1   109.5600471 388.275200
   1484   1483   1485     1   108.4600466 328.025600
   1485   1483   1495     1   109.5600471 388.275200
   1486   1489   1490     1   109.8000471 387.438400
   1486   1489   1491     1   109.8000471 387.438400
   1487   1486   1489     1   109.5600471 388.275200
   1487   1486   1488     1   108.4600466 328.025600
   1488   1486   1489     1   109.5600471 388.275200
   1489   1498   1499     1   109.5600471 388.275200
   1489   1498   1500     1   109.5600471 388.275200
   1490   1489   1498     1   109.8000471 387.438400
   1490   1489   1491     1   107.5800459 329.699200
   1491   1489   1498     1   109.8000471 387.438400
   1492   1504   1505     1   109.5600471 388.275200
   1492   1504   1506     1   109.5600471 388.275200
   1493   1492   1504     1   109.8000471 387.438400
   1493   1492   1494     1   107.5800459 329.699200
   1494   1492   1504     1   109.8000471 387.438400
   1495   1501   1502     1   109.5600471 388.275200
   1495   1501   1503     1   109.5600471 388.275200
   1496   1495   1501     1   109.8000471 387.438400
   1496   1495   1497     1   107.5800459 329.699200
   1497   1495   1501     1   109.8000471 387.438400
   1499   1498   1507     1   109.7800468 425.094400
   1499   1498   1500     1   108.4600466 328.025600
   1500   1498   1507     1   109.7800468 425.094400
   1502   1501   3044     1   109.7800468 425.094400
   1502   1501   1503     1   108.4600466 328.025600
   1503   1501   3044     1   109.7800468 425.094400
   1505   1504   3073     1   109.7800468 425.094400
   1505   1504   1506     1   108.4600466 328.025600
   1506   1504   3073     1   109.7800468 425.094400
   1508   1509   1510     1   109.8800469 414.216000
   1508   1509   1511     1   109.8800469 414.216000
   1508   1512   1513     1   109.8800469 414.216000
   1508   1512   1514     1   109.8800469 414.216000
   1508   1515   1516     1   109.8800469 414.216000
   1508   1515   1517     1   109.8800469 414.216000
   1509   1521   1522     1   109.8000471 387.438400
   1509   1521   1523     1   109.8000471 387.438400
   1510   1509   1521     1   109.5600471 388.275200
   1510   1509   1511     1   108.4600466 328.025600
   1511   1509   1521     1   109.5600471 388.275200
   1512   1524   1525     1   109.8000471 387.438400
   1512   1524   1526     1   109.8000471 387.438400
   1513   1512   1524     1   109.5600471 388.275200
   1513   1512   1514     1   108.4600466 328.025600
   1514   1512   1524     1   109.5600471 388.275200
   1515   1518   1519     1   109.8000471 387.438400
   1515   1518   1520     1   109.8000471 387.438400
   1516   1515   1518     1   109.5600471 388.275200
   1516   1515   1517     1   108.4600466 328.025600
   1517   1515   1518     1   109.5600471 388.275200
   1518   1527   1528     1   109.5600471 388.275200
   1518   1527   1529     1   109.5600471 388.275200
   1519   1518   1527     1   109.8000471 387.438400
   1519   1518   1520     1   107.5800459 329.699200
   1520   1518   1527     1   109.8000471 387.438400
   1521   1533   1534     1   109.5600471 388.275200
   1521   1533   1535     1   109.5600471 388.275200
   1522   1521   1533     1   109.8000471 387.438400
   1522   1521   1523     1   107.5800459 329.699200
   1523   1521   1533     1   109.8000471 387.438400
   1524   1530   1531     1   109.5600471 388.275200
   1524   1530   1532     1   109.5600471 388.275200
   1525   1524   1530     1   109.8000471 387.438400
   1525   1524   1526     1   107.5800459 329.699200
   1526   1524   1530     1   109.8000471 387.438400
   1528   1527   1536     1   109.7800468 425.094400
   1528   1527   1529     1   108.4600466 328.025600
   1529   1527   1536     1   109.7800468 425.094400
   1531   1530   3102     1   109.7800468 425.094400
   1531   1530   1532     1   108.4600466 328.025600
   1532   1530   3102     1   109.7800468 425.094400
   1534   1533   3131     1   109.7800468 425.094400
   1534   1533   1535     1   108.4600466 328.025600
   1535   1533   3131     1   109.7800468 425.094400
   1537   1538   1539     1   109.8800469 414.216000
   1537   1538   1540     1   109.8800469 414.216000
   1537   1541   1542     1   109.8800469 414.216000
   1537   1541   1543     1   109.8800469 414.216000
   1537   1544   1545     1   109.8800469 414.216000
   1537   1544   1546     1   109.8800469 414.216000
   1538   1550   1551     1   109.8000471 387.438400
   1538   1550   1552     1   109.8000471 387.438400
   1539   1538   1550     1   109.5600471 388.275200
   1539   1538   1540     1   108.4600466 328.025600
   1540   1538   1550     1   109.5600471 388.275200
   1541   1553   1554     1   109.8000471 387.438400
   1541   1553   1555     1   109.8000471 387.438400
   1542   1541   1553     1   109.5600471 388.275200
   1542   1541   1543     1   108.4600466 328.025600
   1543   1541   1553     1   109.5600471 388.275200
   1544   1547   1548     1   109.8000471 387.438400
   1544   1547   1549     1   109.8000471 387.438400
   1545   1544   1547     1   109.5600471 388.275200
   1545   1544   1546     1   108.4600466 328.025600
   1546   1544   1547     1   109.5600471 388.275200
   1547   1556   1557     1   109.5600471 388.275200
   1547   1556   1558     1   109.5600471 388.275200
   1548   1547   1556     1   109.8000471 387.438400
   1548   1547   1549     1   107.5800459 329.699200
   1549   1547   1556     1   109.8000471 387.438400
   1550   1562   1563     1   109.5600471 388.275200
   1550   1562   1564     1   109.5600471 388.275200
   1551   1550   1562     1   109.8000471 387.438400
   1551   1550   1552     1   107.5800459 329.699200
   1552   1550   1562     1   109.8000471 387.438400
   1553   1559   1560     1   109.5600471 388.275200
   1553   1559   1561     1   109.5600471 388.275200
   1554   1553   1559     1   109.8000471 387.438400
   1554   1553   1555     1   107.5800459 329.699200
   1555   1553   1559     1   109.8000471 387.438400
   1557   1556   1565     1   109.7800468 425.094400
   1557   1556   1558     1   108.4600466 328.025600
   1558   1556   1565     1   109.7800468 425.094400
   1560   1559   3160     1   109.7800468 425.094400
   1560   1559   1561     1   108.4600466 328.025600
   1561   1559   3160     1   109.7800468 425.094400
   1563   1562   3189     1   109.7800468 425.094400
   1563   1562   1564     1   108.4600466 328.025600
   1564   1562   3189     1   109.7800468 425.094400
   1566   1567   1568     1   109.8800469 414.216000
   1566   1567   1569     1   109.8800469 414.216000
   1566   1570   1571     1   109.8800469 414.216000
   1566   1570   1572     1   109.8800469 414.216000
   1566   1573   1574     1   109.8800469 414.216000
   1566   1573   1575     1   109.8800469 414.216000
   1567   1579   1580     1   109.8000471 387.438400
   1567   1579   1581     1   109.8000471 387.438400
   1568   1567   1579     1   109.5600471 388.275200
   1568   1567   1569     1   108.4600466 328.025600
   1569   1567   1579     1   109.5600471 388.275200
   1570   1582   1583     1   109.8000471 387.438400
   1570   1582   1584     1   109.8000471 387.438400
   1571   1570   1582     1   109.5600471 388.275200
   1571   1570   1572     1   108.4600466 328.025600
   1572   1570   1582     1   109.5600471 388.275200
   1573   1576   1577     1   109.8000471 387.438400
   1573   1576   1578     1   109.8000471 387.438400
   1574   1573   1576     1   109.5600471 388.275200
   1574   1573   1575     1   108.4600466 328.025600
   1575   1573   1576     1   109.5600471 388.275200
   1576   1585   1586     1   109.5600471 388.275200
   1576   1585   1587     1   109.5600471 388.275200
   1577   1576   1585     1   109.8000471 387.438400
   1577   1576   1578     1   107.5800459 329.699200
   1578   1576   1585     1   109.8000471 387.438400
   1579   1591   1592     1   109.5600471 388.275200
   1579   1591   1593     1   109.5600471 388.275200
   1580   1579   1591     1   109.8000471 387.438400
   1580   1579   1581     1   107.5800459 329.699200
   1581   1579   1591     1   109.8000471 387.438400
   1582   1588   1589     1   109.5600471 388.275200
   1582   1588   1590     1   109.5600471 388.275200
   1583   1582   1588     1   109.8000471 387.438400
   1583   1582   1584     1   107.5800459 329.699200
   1584   1582   1588     1   109.8000471 387.438400
   1586   1585   1594     1   109.7800468 425.094400
   1586   1585   1587     1   108.4600466 328.025600
   1587   1585   1594     1   109.7800468 425.094400
   1589   1588   3218     1   109.7800468 425.094400
   1589   1588   1590     1   108.4600466 328.025600
   1590   1588   3218     1   109.7800468 425.094400
   1592   1591   3247     1   109.7800468 425.094400
   1592   1591   1593     1   108.4600466 328.025600
   1593   1591   3247     1   109.7800468 425.094400
   1595   1596   1597     1   109.8800469 414.216000
   1595   1596   1598     1   109.8800469 414.216000
   1595   1599   1600     1   109.8800469 414.216000
   1595   1599   1601     1   109.8800469 414.216000
   1595   1602   1603     1   109.8800469 414.216000
   1595   1602   1604     1   109.8800469 414.216000
   1596   1608   1609     1   109.8000471 387.438400
   1596   1608   1610     1   109.8000471 387.438400
   1597   1596   1608     1   109.5600471 388.275200
   1597   1596   1598     1   108.4600466 328.025600
   1598   1596   1608     1   109.5600471 388.275200
   1599   1611   1612     1   109.8000471 387.438400
   1599   1611   1613     1   109.8000471 387.438400
   1600   1599   1611     1   109.5600471 388.275200
   1600   1599   1601     1   108.4600466 328.025600
   1601   1599   1611     1   109.5600471 388.275200
   1602   1605   1606     1   109.8000471 387.438400
   1602   1605   1607     1   109.8000471 387.438400
   1603   1602   1605     1   109.5600471 388.275200
   1603   1602   1604     1   108.4600466 328.025600
   1604   1602   1605     1   109.5600471 388.275200
   1605   1614   1615     1   109.5600471 388.275200
   1605   1614   1616     1   109.5600471 388.275200
   1606   1605   1614     1   109.8000471 387.438400
   1606   1605   1607     1   107.5800459 329.699200
   1607   1605   1614     1   109.8000471 387.438400
   1608   1620   1621     1   109.5600471 388.275200
   1608   1620   1622     1   109.5600471 388.275200
   1609   1608   1620     1   109.8000471 387.438400
   1609   1608   1610     1   107.5800459 329.699200
   1610   1608   1620     1   109.8000471 387.438400
   1611   1617   1618     1   109.5600471 388.275200
   1611   1617   1619     1   109.5600471 388.275200
   1612   1611   1617     1   109.8000471 387.438400
   1612   1611   1613     1   107.5800459 329.699200
   1613   1611   1617     1   109.8000471 387.438400
   1615   1614   1623     1   109.7800468 425.094400
   1615   1614   1616     1   108.4600466 328.025600
   1616   1614   1623     1   109.7800468 425.094400
   1618   1617   3276     1   109.7800468 425.094400
   1618   1617   1619     1   108.4600466 328.025600
   1619   1617   3276     1   109.7800468 425.094400
   1621   1620   3305     1   109.7800468 425.094400
   1621   1620   1622     1   108.4600466 328.025600
   1622   1620   3305     1   109.7800468 425.094400
   1624   1625   1626     1   109.8800469 414.216000
   1624   1625   1627     1   109.8800469 414.216000
   1624   1628   1629     1   109.8800469 414.216000
   1624   1628   1630     1   109.8800469 414.216000
   1624   1631   1632     1   109.8800469 414.216000
   1624   1631   1633     1   109.8800469 414.216000
   1625   1637   1638     1   109.8000471 387.438400
   1625   1637   1639     1   109.8000471 387.438400
   1626   1625   1637     1   109.5600471 388.275200
   1626   1625   1627     1   108.4600466 328.025600
   1627   1625   1637     1   109.5600471 388.275200
   1628   1640   1641     1   109.8000471 387.438400
   1628   1640   1642     1   109.8000471 387.438400
   1629   1628   1640     1   109.5600471 388.275200
   1629   1628   1630     1   108.4600466 328.025600
   1630   1628   1640     1   109.5600471 388.275200
   1631   1634   1635     1   109.8000471 387.438400
   1631   1634   1636     1   109.8000471 387.438400
   1632   1631   1634     1   109.5600471 388.275200
   1632   1631   1633     1   108.4600466 328.025600
   1633   1631   1634     1   109.5600471 388.275200
   1634   1643   1644     1   109.5600471 388.275200
   1634   1643   1645     1   109.5600471 388.275200
   1635   1634   1643     1   109.8000471 387.438400
   1635   1634   1636     1   107.5800459 329.699200
   1636   1634   1643     1   109.8000471 387.438400
   1637   1649   1650     1   109.5600471 388.275200
   1637   1649   1651     1   109.5600471 388.275200
   1638   1637   1649     1   109.8000471 387.438400
   1638   1637   1639     1   107.5800459 329.699200
   1639   1637   1649     1   109.8000471 387.438400
   1640   1646   1647     1   109.5600471 388.275200
   1640   1646   1648     1   109.5600471 388.275200
   1641   1640   1646     1   109.8000471 387.438400
   1641   1640   1642     1   107.5800459 329.699200
   1642   1640   1646     1   109.8000471 387.438400
   1644   1643   1652     1   109.7800468 425.094400
   1644   1643   1645     1   108.4600466 328.025600
   1645   1643   1652     1   109.7800468 425.094400
   1647   1646   3334     1   109.7800468 425.094400
   1647   1646   1648     1   108.4600466 328.025600
   1648   1646   3334     1   109.7800468 425.094400
   1650   1649   3363     1   109.7800468 425.094400
   1650   1649   1651     1   108.4600466 328.025600
   1651   1649   3363     1   109.7800468 425.094400
   1653   1654   1655     1   109.8800469 414.216000
   1653   1654   1656     1   109.8800469 414.216000
   1653   1657   1658     1   109.8800469 414.216000
   1653   1657   1659     1   109.8800469 414.216000
   1653   1660   1661     1   109.8800469 414.216000
   1653   1660   1662     1   109.8800469 414.216000
   1654   1666   1667     1   109.8000471 387.438400
   1654   1666   1668     1   109.8000471 387.438400
   1655   1654   1666     1   109.5600471 388.275200
   1655   1654   1656     1   108.4600466 328.025600
   1656   1654   1666     1   109.5600471 388.275200
   1657   1669   1670     1   109.8000471 387.438400
   1657   1669   1671     1   109.8000471 387.438400
   1658   1657   1669     1   109.5600471 388.275200
   1658   1657   1659     1   108.4600466 328.025600
   1659   1657   1669     1   109.5600471 388.275200
   1660   1663   1664     1   109.8000471 387.438400
   1660   1663   1665     1   109.8000471 387.438400
   1661   1660   1663     1   109.5600471 388.275200
   1661   1660   1662     1   108.4600466 328.025600
   1662   1660   1663     1   109.5600471 388.275200
   1663   1672   1673     1   109.5600471 388.275200
   1663   1672   1674     1   109.5600471 388.275200
   1664   1663   1672     1   109.8000471 387.438400
   1664   1663   1665     1   107.5800459 329.699200
   1665   1663   1672     1   109.8000471 387.438400
   1666   1678   1679     1   109.5600471 388.275200
   1666   1678   1680     1   109.5600471 388.275200
   1667   1666   1678     1   109.8000471 387.438400
   1667   1666   1668     1   107.5800459 329.699200
   1668   1666   1678     1   109.8000471 387.438400
   1669   1675   1676     1   109.5600471 388.275200
   1669   1675   1677     1   109.5600471 388.275200
   1670   1669   1675     1   109.8000471 387.438400
   1670   1669   1671     1   107.5800459 329.699200
   1671   1669   1675     1   109.8000471 387.438400
   1673   1672   1681     1   109.7800468 425.094400
   1673   1672   1674     1   108.4600466 328.025600
   1674   1672   1681     1   109.7800468 425.094400
   1676   1675   3392     1   109.7800468 425.094400
   1676   1675   1677     1   108.4600466 328.025600
   1677   1675   3392     1   109.7800468 425.094400
   1679   1678   3421     1   109.7800468 425.094400
   1679   1678   1680     1   108.4600466 328.025600
   1680   1678   3421     1   109.7800468 425.094400
   1682   1683   1684     1   109.8800469 414.216000
   1682   1683   1685     1   109.8800469 414.216000
   1682   1686   1687     1   109.8800469 414.216000
   1682   1686   1688     1   109.8800469 414.216000
   1682   1689   1690     1   109.8800469 414.216000
   1682   1689   1691     1   109.8800469 414.216000
   1683   1695   1696     1   109.8000471 387.438400
   1683   1695   1697     1   109.8000471 387.438400
   1684   1683   1695     1   109.5600471 388.275200
   1684   1683   1685     1   108.4600466 328.025600
   1685   1683   1695     1   109.5600471 388.275200
   1686   1698   1699     1   109.8000471 387.438400
   1686   1698   1700     1   109.8000471 387.438400
   1687   1686   1698     1   109.5600471 388.275200
   1687   1686   1688     1   108.4600466 328.025600
   1688   1686   1698     1   109.5600471 388.275200
   1689   1692   1693     1   109.8000471 387.438400
   1689   1692   1694     1   109.8000471 387.438400
   1690   1689   1692     1   109.5600471 388.275200
   1690   1689   1691     1   108.4600466 328.025600
   1691   1689   1692     1   109.5600471 388.275200
   1692   1701   1702     1   109.5600471 388.275200
   1692   1701   1703     1   109.5600471 388.275200
   1693   1692   1701     1   109.8000471 387.438400
   1693   1692   1694     1   107.5800459 329.699200
   1694   1692   1701     1   109.8000471 387.438400
   1695   1707   1708     1   109.5600471 388.275200
   1695   1707   1709     1   109.5600471 388.275200
   1696   1695   1707     1   109.8000471 387.438400
   1696   1695   1697     1   107.5800459 329.699200
   1697   1695   1707     1   109.8000471 387.438400
   1698   1704   1705     1   109.5600471 388.275200
   1698   1704   1706     1   109.5600471 388.275200
   1699   1698   1704     1   109.8000471 387.438400
   1699   1698   1700     1   107.5800459 329.699200
   1700   1698   1704     1   109.8000471 387.438400
   1702   1701   1710     1   109.7800468 425.094400
   1702   1701   1703     1   108.4600466 328.025600
   1703   1701   1710     1   109.7800468 425.094400
   1705   1704   3450     1   109.7800468 425.094400
   1705   1704   1706     1   108.4600466 328.025600
   1706   1704   3450     1   109.7800468 425.094400
   1708   1707   3479     1   109.7800468 425.094400
   1708   1707   1709     1   108.4600466 328.025600
   1709   1707   3479     1   109.7800468 425.094400
   1711   1712   1713     1   109.8800469 414.216000
   1711   1712   1714     1   109.8800469 414.216000
   1711   1715   1716     1   109.8800469 414.216000
   1711   1715   1717     1   109.8800469 414.216000
   1711   1718   1719     1   109.8800469 414.216000
   1711   1718   1720     1   109.8800469 414.216000
   1712   1724   1725     1   109.8000471 387.438400
   1712   1724   1726     1   109.8000471 387.438400
   1713   1712   1724     1   109.5600471 388.275200
   1713   1712   1714     1   108.4600466 328.025600
   1714   1712   1724     1   109.5600471 388.275200
   1715   1727   1728     1   109.8000471 387.438400
   1715   1727   1729     1   109.8000471 387.438400
   1716   1715   1727     1   109.5600471 388.275200
   1716   1715   1717     1   108.4600466 328.025600
   1717   1715   1727     1   109.5600471 388.275200
   1718   1721   1722     1   109.8000471 387.438400
   1718   1721   1723     1   109.8000471 387.438400
   1719   1718   1721     1   109.5600471 388.275200
   1719   1718   1720     1   108.4600466 328.025600
   1720   1718   1721     1   109.5600471 388.275200
   1721   1730   1731     1   109.5600471 388.275200
   1721   1730   1732     1   109.5600471 388.275200
   1722   1721   1730     1   109.8000471 387.438400
   1722   1721   1723     1   107.5800459 329.699200
   1723   1721   1730     1   109.8000471 387.438400
   1724   1736   1737     1   109.5600471 388.275200
   1724   1736   1738     1   109.5600471 388.275200
   1725   1724   1736     1   109.8000471 387.438400
   1725   1724   1726     1   107.5800459 329.699200
   1726   1724   1736     1   109.8000471 387.438400
   1727   1733   1734     1   109.5600471 388.275200
   1727   1733   1735     1   109.5600471 388.275200
   1728   1727   1733     1   109.8000471 387.438400
   1728   1727   1729     1   107.5800459 329.699200
   1729   1727   1733     1   109.8000471 387.438400
   1731   1730   1739     1   109.7800468 425.094400
   1731   1730   1732     1   108.4600466 328.025600
   1732   1730   1739     1   109.7800468 425.094400
   1734   1733   3508     1   109.7800468 425.094400
   1734   1733   1735     1   108.4600466 328.025600
   1735   1733   3508     1   109.7800468 425.094400
   1737   1736   3537     1   109.7800468 425.094400
   1737   1736   1738     1   108.4600466 328.025600
   1738   1736   3537     1   109.7800468 425.094400
   1740   1741   1742     1   109.8800469 414.216000
   1740   1741   1743     1   109.8800469 414.216000
   1740   1744   1745     1   109.8800469 414.216000
   1740   1744   1746     1   109.8800469 414.216000
   1740   1747   1748     1   109.8800469 414.216000
   1740   1747   1749     1   109.8800469 414.216000
   1741   1753   1754     1   109.8000471 387.438400
   1741   1753   1755     1   109.8000471 387.438400
   1742   1741   1753     1   109.5600471 388.275200
   1742   1741   1743     1   108.4600466 328.025600
   1743   1741   1753     1   109.5600471 388.275200
   1744   1756   1757     1   109.8000471 387.438400
   1744   1756   1758     1   109.8000471 387.438400
   1745   1744   1756     1   109.5600471 388.275200
   1745   1744   1746     1   108.4600466 328.025600
   1746   1744   1756     1   109.5600471 388.275200
   1747   1750   1751     1   109.8000471 387.438400
   1747   1750   1752     1   109.8000471 387.438400
   1748   1747   1750     1   109.5600471 388.275200
   1748   1747   1749     1   108.4600466 328.025600
   1749   1747   1750     1   109.5600471 388.275200
   1750   1759   1760     1   109.5600471 388.275200
   1750   1759   1761     1   109.5600471 388.275200
   1751   1750   1759     1   109.8000471 387.438400
   1751   1750   1752     1   107.5800459 329.699200
   1752   1750   1759     1   109.8000471 387.438400
   1753   1765   1766     1   109.5600471 388.275200
   1753   1765   1767     1   109.5600471 388.275200
   1754   1753   1765     1   109.8000471 387.438400
   1754   1753   1755     1   107.5800459 329.699200
   1755   1753   1765     1   109.8000471 387.438400
   1756   1762   1763     1   109.5600471 388.275200
   1756   1762   1764     1   109.5600471 388.275200
   1757   1756   1762     1   109.8000471 387.438400
   1757   1756   1758     1   107.5800459 329.699200
   1758   1756   1762     1   109.8000471 387.438400
   1760   1759   1768     1   109.7800468 425.094400
   1760   1759   1761     1   108.4600466 328.025600
   1761   1759   1768     1   109.7800468 425.094400
   1763   1762   3566     1   109.7800468 425.094400
   1763   1762   1764     1   108.4600466 328.025600
   1764   1762   3566     1   109.7800468 425.094400
   1766   1765   3595     1   109.7800468 425.094400
   1766   1765   1767     1   108.4600466 328.025600
   1767   1765   3595     1   109.7800468 425.094400
   1769   1770   1771     1   109.8800469 414.216000
   1769   1770   1772     1   109.8800469 414.216000
   1769   1773   1774     1   109.8800469 414.216000
   1769   1773   1775     1   109.8800469 414.216000
   1769   1776   1777     1   109.8800469 414.216000
   1769   1776   1778     1   109.8800469 414.216000
   1770   1782   1783     1   109.8000471 387.438400
   1770   1782   1784     1   109.8000471 387.438400
   1771   1770   1782     1   109.5600471 388.275200
   1771   1770   1772     1   108.4600466 328.025600
   1772   1770   1782     1   109.5600471 388.275200
   1773   1785   1786     1   109.8000471 387.438400
   1773   1785   1787     1   109.8000471 387.438400
   1774   1773   1785     1   109.5600471 388.275200
   1774   1773   1775     1   108.4600466 328.025600
   1775   1773   1785     1   109.5600471 388.275200
   1776   1779   1780     1   109.8000471 387.438400
   1776   1779   1781     1   109.8000471 387.438400
   1777   1776   1779     1   109.5600471 388.275200
   1777   1776   1778     1   108.4600466 328.025600
   1778   1776   1779     1   109.5600471 388.275200
   1779   1788   1789     1   109.5600471 388.275200
   1779   1788   1790     1   109.5600471 388.275200
   1780   1779   1788     1   109.8000471 387.438400
   1780   1779   1781     1   107.5800459 329.699200
   1781   1779   1788     1   109.8000471 387.438400
   1782   1794   1795     1   109.5600471 388.275200
   1782   1794   1796     1   109.5600471 388.275200
   1783   1782   1794     1   109.8000471 387.438400
   1783   1782   1784     1   107.5800459 329.699200
   1784   1782   1794     1   109.8000471 387.438400
   1785   1791   1792     1   109.5600471 388.275200
   1785   1791   1793     1   109.5600471 388.275200
   1786   1785   1791     1   109.8000471 387.438400
   1786   1785   1787     1   107.5800459 329.699200
   1787   1785   1791     1   109.8000471 387.438400
   1789   1788   1797     1   109.7800468 425.094400
   1789   1788   1790     1   108.4600466 328.025600
   1790   1788   1797     1   109.7800468 425.094400
   1792   1791   3624     1   109.7800468 425.094400
   1792   1791   1793     1   108.4600466 328.025600
   1793   1791   3624     1   109.7800468 425.094400
   1795   1794   3653     1   109.7800468 425.094400
   1795   1794   1796     1   108.4600466 328.025600
   1796   1794   3653     1   109.7800468 425.094400
   1798   1799   1800     1   109.8800469 414.216000
   1798   1799   1801     1   109.8800469 414.216000
   1798   1802   1803     1   109.8800469 414.216000
   1798   1802   1804     1   109.8800469 414.216000
   1798   1805   1806     1   109.8800469 414.216000
   1798   1805   1807     1   109.8800469 414.216000
   1799   1811   1812     1   109.8000471 387.438400
   1799   1811   1813     1   109.8000471 387.438400
   1800   1799   1811     1   109.5600471 388.275200
   1800   1799   1801     1   108.4600466 328.025600
   1801   1799   1811     1   109.5600471 388.275200
   1802   1814   1815     1   109.8000471 387.438400
   1802   1814   1816     1   109.8000471 387.438400
   1803   1802   1814     1   109.5600471 388.275200
   1803   1802   1804     1   108.4600466 328.025600
   1804   1802   1814     1   109.5600471 388.275200
   1805   1808   1809     1   109.8000471 387.438400
   1805   1808   1810     1   109.8000471 387.438400
   1806   1805   1808     1   109.5600471 388.275200
   1806   1805   1807     1   108.4600466 328.025600
   1807   1805   1808     1   109.5600471 388.275200
   1808   1817   1818     1   109.5600471 388.275200
   1808   1817   1819     1   109.5600471 388.275200
   1809   1808   1817     1   109.8000471 387.438400
   1809   1808   1810     1   107.5800459 329.699200
   1810   1808   1817     1   109.8000471 387.438400
   1811   1823   1824     1   109.5600471 388.275200
   1811   1823   1825     1   109.5600471 388.275200
   1812   1811   1823     1   109.8000471 387.438400
   1812   1811   1813     1   107.5800459 329.699200
   1813   1811   1823     1   109.8000471 387.438400
   1814   1820   1821     1   109.5600471 388.275200
   1814   1820   1822     1   109.5600471 388.275200
   1815   1814   1820     1   109.8000471 387.438400
   1815   1814   1816     1   107.5800459 329.699200
   1816   1814   1820     1   109.8000471 387.438400
   1818   1817   1826     1   109.7800468 425.094400
   1818   1817   1819     1   108.4600466 328.025600
   1819   1817   1826     1   109.7800468 425.094400
   1821   1820   3684     1   109.7800468 425.094400
   1821   1820   1822     1   108.4600466 328.025600
   1822   1820   3684     1   109.7800468 425.094400
   1824   1823   3715     1   109.7800468 425.094400
   1824   1823   1825     1   108.4600466 328.025600
   1825   1823   3715     1   109.7800468 425.094400
   1827   1828   1829     1   109.8800469 414.216000
   1827   1828   1830     1   109.8800469 414.216000
   1827   1831   1832     1   109.8800469 414.216000
   1827   1831   1833     1   109.8800469 414.216000
   1827   1834   1835     1   109.8800469 414.216000
   1827   1834   1836     1   109.8800469 414.216000
   1828   1840   1841     1   109.8000471 387.438400
   1828   1840   1842     1   109.8000471 387.438400
   1829   1828   1840     1   109.5600471 388.275200
   1829   1828   1830     1   108.4600466 328.025600
   1830   1828   1840     1   109.5600471 388.275200
   1831   1843   1844     1   109.8000471 387.438400
   1831   1843   1845     1   109.8000471 387.438400
   1832   1831   1843     1   109.5600471 388.275200
   1832   1831   1833     1   108.4600466 328.025600
   1833   1831   1843     1   109.5600471 388.275200
   1834   1837   1838     1   109.8000471 387.438400
   1834   1837   1839     1   109.8000471 387.438400
   1835   1834   1837     1   109.5600471 388.275200
   1835   1834   1836     1   108.4600466 328.025600
   1836   1834   1837     1   109.5600471 388.275200
   1837   1846   1847     1   109.5600471 388.275200
   1837   1846   1848     1   109.5600471 388.275200
   1838   1837   1846     1   109.8000471 387.438400
   1838   1837   1839     1   107.5800459 329.699200
   1839   1837   1846     1   109.8000471 387.438400
   1840   1852   1853     1   109.5600471 388.275200
   1840   1852   1854     1   109.5600471 388.275200
   1841   1840   1852     1   109.8000471 387.438400
   1841   1840   1842     1   107.5800459 329.699200
   1842   1840   1852     1   109.8000471 387.438400
   1843   1849   1850     1   109.5600471 388.275200
   1843   1849   1851     1   109.5600471 388.275200
   1844   1843   1849     1   109.8000471 387.438400
   1844   1843   1845     1   107.5800459 329.699200
   1845   1843   1849     1   109.8000471 387.438400
   1847   1846   1855     1   109.7800468 425.094400
   1847   1846   1848     1   108.4600466 328.025600
   1848   1846   1855     1   109.7800468 425.094400
   1850   1849   3746     1   109.7800468 425.094400
   1850   1849   1851     1   108.4600466 328.025600
   1851   1849   3746     1   109.7800468 425.094400
   1853   1852   3777     1   109.7800468 425.094400
   1853   1852   1854     1   108.4600466 328.025600
   1854   1852   3777     1   109.7800468 425.094400
   1856   1857   1858     1   109.8800469 414.216000
   1856   1857   1859     1   109.8800469 414.216000
   1856   1860   1861     1   109.8800469 414.216000
   1856   1860   1862     1   109.8800469 414.216000
   1856   1863   1864     1   109.8800469 414.216000
   1856   1863   1865     1   109.8800469 414.216000
   1857   1869   1870     1   109.8000471 387.438400
   1857   1869   1871     1   109.8000471 387.438400
   1858   1857   1869     1   109.5600471 388.275200
   1858   1857   1859     1   108.4600466 328.025600
   1859   1857   1869     1   109.5600471 388.275200
   1860   1872   1873     1   109.8000471 387.438400
   1860   1872   1874     1   109.8000471 387.438400
   1861   1860   1872     1   109.5600471 388.275200
   1861   1860   1862     1   108.4600466 328.025600
   1862   1860   1872     1   109.5600471 388.275200
   1863   1866   1867     1   109.8000471 387.438400
   1863   1866   1868     1   109.8000471 387.438400
   1864   1863   1866     1   109.5600471 388.275200
   1864   1863   1865     1   108.4600466 328.025600
   1865   1863   1866     1   109.5600471 388.275200
   1866   1875   1876     1   109.5600471 388.275200
   1866   1875   1877     1   109.5600471 388.275200
   1867   1866   1875     1   109.8000471 387.438400
   1867   1866   1868     1   107.5800459 329.699200
   1868   1866   1875     1   109.8000471 387.438400
   1869   1881   1882     1   109.5600471 388.275200
   1869   1881   1883     1   109.5600471 388.275200
   1870   1869   1881     1   109.8000471 387.438400
   1870   1869   1871     1   107.5800459 329.699200
   1871   1869   1881     1   109.8000471 387.438400
   1872   1878   1879     1   109.5600471 388.275200
   1872   1878   1880     1   109.5600471 388.275200
   1873   1872   1878     1   109.8000471 387.438400
   1873   1872   1874     1   107.5800459 329.699200
   1874   1872   1878     1   109.8000471 387.438400
   1876   1875   1884     1   109.7800468 425.094400
   1876   1875   1877     1   108.4600466 328.025600
   1877   1875   1884     1   109.7800468 425.094400
   1879   1878   3808     1   109.7800468 425.094400
   1879   1878   1880     1   108.4600466 328.025600
   1880   1878   3808     1   109.7800468 425.094400
   1882   1881   3839     1   109.7800468 425.094400
   1882   1881   1883     1   108.4600466 328.025600
   1883   1881   3839     1   109.7800468 425.094400
   1885   1886   1887     1   109.8800469 414.216000
   1885   1886   1888     1   109.8800469 414.216000
   1885   1889   1890     1   109.8800469 414.216000
   1885   1889   1891     1   109.8800469 414.216000
   1885   1892   1893     1   109.8800469 414.216000
   1885   1892   1894     1   109.8800469 414.216000
   1886   1898   1899     1   109.8000471 387.438400
   1886   1898   1900     1   109.8000471 387.438400
   1887   1886   1898     1   109.5600471 388.275200
   1887   1886   1888     1   108.4600466 328.025600
   1888   1886   1898     1   109.5600471 388.275200
   1889   1901   1902     1   109.8000471 387.438400
   1889   1901   1903     1   109.8000471 387.438400
   1890   1889   1901     1   109.5600471 388.275200
   1890   1889   1891     1   108.4600466 328.025600
   1891   1889   1901     1   109.5600471 388.275200
   1892   1895   1896     1   109.8000471 387.438400
   1892   1895   1897     1   109.8000471 387.438400
   1893   1892   1895     1   109.5600471 388.275200
   1893   1892   1894     1   108.4600466 328.025600
   1894   1892   1895     1   109.5600471 388.275200
   1895   1904   1905     1   109.5600471 388.275200
   1895   1904   1906     1   109.5600471 388.275200
   1896   1895   1904     1   109.8000471 387.438400
   1896   1895   1897     1   107.5800459 329.699200
   1897   1895   1904     1   109.8000471 387.438400
   1898   1910   1911     1   109.5600471 388.275200
   1898   1910   1912     1   109.5600471 388.275200
   1899   1898   1910     1   109.8000471 387.438400
   1899   1898   1900     1   107.5800459 329.699200
   1900   1898   1910     1   109.8000471 387.438400
   1901   1907   1908     1   109.5600471 388.275200
   1901   1907   1909     1   109.5600471 388.275200
   1902   1901   1907     1   109.8000471 387.438400
   1902   1901   1903     1   107.5800459 329.699200
   1903   1901   1907     1   109.8000471 387.438400
   1905   1904   1913     1   109.7800468 425.094400
   1905   1904   1906     1   108.4600466 328.025600
   1906   1904   1913     1   109.7800468 425.094400
   1908   1907   3870     1   109.7800468 425.094400
   1908   1907   1909     1   108.4600466 328.025600
   1909   1907   3870     1   109.7800468 425.094400
   1911   1910   3901     1   109.7800468 425.094400
   1911   1910   1912     1   108.4600466 328.025600
   1912   1910   3901     1   109.7800468 425.094400
   1914   1915   1916     1   109.8800469 414.216000
   1914   1915   1917     1   109.8800469 414.216000
   1914   1918   1919     1   109.8800469 414.216000
   1914   1918   1920     1   109.8800469 414.216000
   1914   1921   1922     1   109.8800469 414.216000
   1914   1921   1923     1   109.8800469 414.216000
   1915   1927   1928     1   109.8000471 387.438400
   1915   1927   1929     1   109.8000471 387.438400
   1916   1915   1927     1   109.5600471 388.275200
   1916   1915   1917     1   108.4600466 328.025600
   1917   1915   1927     1   109.5600471 388.275200
   1918   1930   1931     1   109.8000471 387.438400
   1918   1930   1932     1   109.8000471 387.438400
   1919   1918   1930     1   109.5600471 388.275200
   1919   1918   1920     1   108.4600466 328.025600
   1920   1918   1930     1   109.5600471 388.275200
   1921   1924   1925     1   109.8000471 387.438400
   1921   1924   1926     1   109.8000471 387.438400
   1922   1921   1924     1   109.5600471 388.275200
   1922   1921   1923     1   108.4600466 328.025600
   1923   1921   1924     1   109.5600471 388.275200
   1924   1933   1934     1   109.5600471 388.275200
   1924   1933   1935     1   109.5600471 388.275200
   1925   1924   1933     1   109.8000471 387.438400
   1925   1924   1926     1   107.5800459 329.699200
   1926   1924   1933     1   109.8000471 387.438400
   1927   1939   1940     1   109.5600471 388.275200
   1927   1939   1941     1   109.5600471 388.275200
   1928   1927   1939     1   109.8000471 387.438400
   1928   1927   1929     1   107.5800459 329.699200
   1929   1927   1939     1   109.8000471 387.438400
   1930   1936   1937     1   109.5600471 388.275200
   1930   1936   1938     1   109.5600471 388.275200
   1931   1930   1936     1   109.8000471 387.438400
   1931   1930   1932     1   107.5800459 329.699200
   1932   1930   1936     1   109.8000471 387.438400
   1934   1933   1942     1   109.7800468 425.094400
   1934   1933   1935     1   108.4600466 328.025600
   1935   1933   1942     1   109.7800468 425.094400
   1937   1936   3932     1   109.7800468 425.094400
   1937   1936   1938     1   108.4600466 328.025600
   1938   1936   3932     1   109.7800468 425.094400
   1940   1939   3963     1   109.7800468 425.094400
   1940   1939   1941     1   108.4600466 328.025600
   1941   1939   3963     1   109.7800468 425.094400
   1943   1944   1945     1   109.8800469 414.216000
   1943   1944   1946     1   109.8800469 414.216000
   1943   1947   1948     1   109.8800469 414.216000
   1943   1947   1949     1   109.8800469 414.216000
   1943   1950   1951     1   109.8800469 414.216000
   1943   1950   1952     1   109.8800469 414.216000
   1944   1956   1957     1   109.8000471 387.438400
   1944   1956   1958     1   109.8000471 387.438400
   1945   1944   1956     1   109.5600471 388.275200
   1945   1944   1946     1   108.4600466 328.025600
   1946   1944   1956     1   109.5600471 388.275200
   1947   1959   1960     1   109.8000471 387.438400
   1947   1959   1961     1   109.8000471 387.438400
   1948   1947   1959     1   109.5600471 388.275200
   1948   1947   1949     1   108.4600466 328.025600
   1949   1947   1959     1   109.5600471 388.275200
   1950   1953   1954     1   109.8000471 387.438400
   1950   1953   1955     1   109.8000471 387.438400
   1951   1950   1953     1   109.5600471 388.275200
   1951   1950   1952     1   108.4600466 328.025600
   1952   1950   1953     1   109.5600471 388.275200
   1953   1962   1963     1   109.5600471 388.275200
   1953   1962   1964     1   109.5600471 388.275200
   1954   1953   1962     1   109.8000471 387.438400
   1954   1953   1955     1   107.5800459 329.699200
   1955   1953   1962     1   109.8000471 387.438400
   1956   1968   1969     1   109.5600471 388.275200
   1956   1968   1970     1   109.5600471 388.275200
   1957   1956   1968     1   109.8000471 387.438400
   1957   1956   1958     1   107.5800459 329.699200
   1958   1956   1968     1   109.8000471 387.438400
   1959   1965   1966     1   109.5600471 388.275200
   1959   1965   1967     1   109.5600471 388.275200
   1960   1959   1965     1   109.8000471 387.438400
   1960   1959   1961     1   107.5800459 329.699200
   1961   1959   1965     1   109.8000471 387.438400
   1963   1962   1971     1   109.7800468 425.094400
   1963   1962   1964     1   108.4600466 328.025600
   1964   1962   1971     1   109.7800468 425.094400
   1966   1965   3994     1   109.7800468 425.094400
   1966   1965   1967     1   108.4600466 328.025600
   1967   1965   3994     1   109.7800468 425.094400
   1969   1968   4025     1   109.7800468 425.094400
   1969   1968   1970     1   108.4600466 328.025600
   1970   1968   4025     1   109.7800468 425.094400
   1972   1973   1974     1   109.8800469 414.216000
   1972   1973   1975     1   109.8800469 414.216000
   1972   1976   1977     1   109.8800469 414.216000
   1972   1976   1978     1   109.8800469 414.216000
   1972   1979   1980     1   109.8800469 414.216000
   1972   1979   1981     1   109.8800469 414.216000
   1973   1985   1986     1   109.8000471 387.438400
   1973   1985   1987     1   109.8000471 387.438400
   1974   1973   1985     1   109.5600471 388.275200
   1974   1973   1975     1   108.4600466 328.025600
   1975   1973   1985     1   109.5600471 388.275200
   1976   1988   1989     1   109.8000471 387.438400
   1976   1988   1990     1   109.8000471 387.438400
   1977   1976   1988     1   109.5600471 388.275200
   1977   1976   1978     1   108.4600466 328.025600
   1978   1976   1988     1   109.5600471 388.275200
   1979   1982   1983     1   109.8000471 387.438400
   1979   1982   1984     1   109.8000471 387.438400
   1980   1979   1982     1   109.5600471 388.275200
   1980   1979   1981     1   108.4600466 328.025600
   1981   1979   1982     1   109.5600471 388.275200
   1982   1991   1992     1   109.5600471 388.275200
   1982   1991   1993     1   109.5600471 388.275200
   1983   1982   1991     1   109.8000471 387.438400
   1983   1982   1984     1   107.5800459 329.699200
   1984   1982   1991     1   109.8000471 387.438400
   1985   1997   1998     1   109.5600471 388.275200
   1985   1997   1999     1   109.5600471 388.275200
   1986   1985   1997     1   109.8000471 387.438400
   1986   1985   1987     1   107.5800459 329.699200
   1987   1985   1997     1   109.8000471 387.438400
   1988   1994   1995     1   109.5600471 388.275200
   1988   1994   1996     1   109.5600471 388.275200
   1989   1988   1994     1   109.8000471 387.438400
   1989   1988   1990     1   107.5800459 329.699200
   1990   1988   1994     1   109.8000471 387.438400
   1992   1991   2000     1   109.7800468 425.094400
   1992   1991   1993     1   108.4600466 328.025600
   1993   1991   2000     1   109.7800468 425.094400
   1995   1994   4056     1   109.7800468 425.094400
   1995   1994   1996     1   108.4600466 328.025600
   1996   1994   4056     1   109.7800468 425.094400
   1998   1997   4087     1   109.7800468 425.094400
   1998   1997   1999     1   108.4600466 328.025600
   1999   1997   4087     1   109.7800468 425.094400
   2001   2002   2003     1   109.8800469 414.216000
   2001   2002   2004     1   109.8800469 414.216000
   2001   2005   2006     1   109.8800469 414.216000
   2001   2005   2007     1   109.8800469 414.216000
   2001   2008   2009     1   109.8800469 414.216000
   2001   2008   2010     1   109.8800469 414.216000
   2002   2014   2015     1   109.8000471 387.438400
   2002   2014   2016     1   109.8000471 387.438400
   2003   2002   2014     1   109.5600471 388.275200
   2003   2002   2004     1   108.4600466 328.025600
   2004   2002   2014     1   109.5600471 388.275200
   2005   2017   2018     1   109.8000471 387.438400
   2005   2017   2019     1   109.8000471 387.438400
   2006   2005   2017     1   109.5600471 388.275200
   2006   2005   2007     1   108.4600466 328.025600
   2007   2005   2017     1   109.5600471 388.275200
   2008   2011   2012     1   109.8000471 387.438400
   2008   2011   2013     1   109.8000471 387.438400
   2009   2008   2011     1   109.5600471 388.275200
   2009   2008   2010     1   108.4600466 328.025600
   2010   2008   2011     1   109.5600471 388.275200
   2011   2020   2021     1   109.5600471 388.275200
   2011   2020   2022     1   109.5600471 388.275200
   2012   2011   2020     1   109.8000471 387.438400
   2012   2011   2013     1   107.5800459 329.699200
   2013   2011   2020     1   109.8000471 387.438400
   2014   2026   2027     1   109.5600471 388.275200
   2014   2026   2028     1   109.5600471 388.275200
   2015   2014   2026     1   109.8000471 387.438400
   2015   2014   2016     1   107.5800459 329.699200
   2016   2014   2026     1   109.8000471 387.438400
   2017   2023   2024     1   109.5600471 388.275200
   2017   2023   2025     1   109.5600471 388.275200
   2018   2017   2023     1   109.8000471 387.438400
   2018   2017   2019     1   107.5800459 329.699200
   2019   2017   2023     1   109.8000471 387.438400
   2021   2020   2029     1   109.7800468 425.094400
   2021   2020   2022     1   108.4600466 328.025600
   2022   2020   2029     1   109.7800468 425.094400
   2024   2023   4118     1   109.7800468 425.094400
   2024   2023   2025     1   108.4600466 328.025600
   2025   2023   4118     1   109.7800468 425.094400
   2027   2026   4149     1   109.7800468 425.094400
   2027   2026   2028     1   108.4600466 328.025600
   2028   2026   4149     1   109.7800468 425.094400
   2030   2031   2032     1   109.8800469 414.216000
   2030   2031   2033     1   109.8800469 414.216000
   2030   2034   2035     1   109.8800469 414.216000
   2030   2034   2036     1   109.8800469 414.216000
   2030   2037   2038     1   109.8800469 414.216000
   2030   2037   2039     1   109.8800469 414.216000
   2031   2043   2044     1   109.8000471 387.438400
   2031   2043   2045     1   109.8000471 387.438400
   2032   2031   2043     1   109.5600471 388.275200
   2032   2031   2033     1   108.4600466 328.025600
   2033   2031   2043     1   109.5600471 388.275200
   2034   2046   2047     1   109.8000471 387.438400
   2034   2046   2048     1   109.8000471 387.438400
   2035   2034   2046     1   109.5600471 388.275200
   2035   2034   2036     1   108.4600466 328.025600
   2036   2034   2046     1   109.5600471 388.275200
   2037   2040   2041     1   109.8000471 387.438400
   2037   2040   2042     1   109.8000471 387.438400
   2038   2037   2040     1   109.5600471 388.275200
   2038   2037   2039     1   108.4600466 328.025600
   2039   2037   2040     1   109.5600471 388.275200
   2040   2049   2050     1   109.5600471 388.275200
   2040   2049   2051     1   109.5600471 388.275200
   2041   2040   2049     1   109.8000471 387.438400
   2041   2040   2042     1   107.5800459 329.699200
   2042   2040   2049     1   109.8000471 387.438400
   2043   2055   2056     1   109.5600471 388.275200
   2043   2055   2057     1   109.5600471 388.275200
   2044   2043   2055     1   109.8000471 387.438400
   2044   2043   2045     1   107.5800459 329.699200
   2045   2043   2055     1   109.8000471 387.438400
   2046   2052   2053     1   109.5600471 388.275200
   2046   2052   2054     1   109.5600471 388.275200
   2047   2046   2052     1   109.8000471 387.438400
   2047   2046   2048     1   107.5800459 329.699200
   2048   2046   2052     1   109.8000471 387.438400
   2050   2049   2058     1   109.7800468 425.094400
   2050   2049   2051     1   108.4600466 328.025600
   2051   2049   2058     1   109.7800468 425.094400
   2053   2052   4180     1   109.7800468 425.094400
   2053   2052   2054     1   108.4600466 328.025600
   2054   2052   4180     1   109.7800468 425.094400
   2056   2055   4211     1   109.7800468 425.094400
   2056   2055   2057     1   108.4600466 328.025600
   2057   2055   4211     1   109.7800468 425.094400
   2059   2060   2061     1   109.8800469 414.216000
   2059   2060   2062     1   109.8800469 414.216000
   2059   2063   2064     1   109.8800469 414.216000
   2059   2063   2065     1   109.8800469 414.216000
   2059   2066   2067     1   109.8800469 414.216000
   2059   2066   2068     1   109.8800469 414.216000
   2060   2072   2073     1   109.8000471 387.438400
   2060   2072   2074     1   109.8000471 387.438400
   2061   2060   2072     1   109.5600471 388.275200
   2061   2060   2062     1   108.4600466 328.025600
   2062   2060   2072     1   109.5600471 388.275200
   2063   2075   2076     1   109.8000471 387.438400
   2063   2075   2077     1   109.8000471 387.438400
   2064   2063   2075     1   109.5600471 388.275200
   2064   2063   2065     1   108.4600466 328.025600
   2065   2063   2075     1   109.5600471 388.275200
   2066   2069   2070     1   109.8000471 387.438400
   2066   2069   2071     1   109.8000471 387.438400
   2067   2066   2069     1   109.5600471 388.275200
   2067   2066   2068     1   108.4600466 328.025600
   2068   2066   2069     1   109.5600471 388.275200
   2069   2078   2079     1   109.5600471 388.275200
   2069   2078   2080     1   109.5600471 388.275200
   2070   2069   2078     1   109.8000471 387.438400
   2070   2069   2071     1   107.5800459 329.699200
   2071   2069   2078     1   109.8000471 387.438400
   2072   2084   2085     1   109.5600471 388.275200
   2072   2084   2086     1   109.5600471 388.275200
   2073   2072   2084     1   109.8000471 387.438400
   2073   2072   2074     1   107.5800459 329.699200
   2074   2072   2084     1   109.8000471 387.438400
   2075   2081   2082     1   109.5600471 388.275200
   2075   2081   2083     1   109.5600471 388.275200
   2076   2075   2081     1   109.8000471 387.438400
   2076   2075   2077     1   107.5800459 329.699200
   2077   2075   2081     1   109.8000471 387.438400
   2079   2078   2087     1   109.7800468 425.094400
   2079   2078   2080     1   108.4600466 328.025600
   2080   2078   2087     1   109.7800468 425.094400
   2082   2081   4242     1   109.7800468 425.094400
   2082   2081   2083     1   108.4600466 328.025600
   2083   2081   4242     1   109.7800468 425.094400
   2085   2084   4273     1   109.7800468 425.094400
   2085   2084   2086     1   108.4600466 328.025600
   2086   2084   4273     1   109.7800468 425.094400
   2088   2089   2090     1   109.8800469 414.216000
   2088   2089   2091     1   109.8800469 414.216000
   2088   2092   2093     1   109.8800469 414.216000
   2088   2092   2094     1   109.8800469 414.216000
   2088   2095   2096     1   109.8800469 414.216000
   2088   2095   2097     1   109.8800469 414.216000
   2089   2101   2102     1   109.8000471 387.438400
   2089   2101   2103     1   109.8000471 387.438400
   2090   2089   2101     1   109.5600471 388.275200
   2090   2089   2091     1   108.4600466 328.025600
   2091   2089   2101     1   109.5600471 388.275200
   2092   2104   2105     1   109.8000471 387.438400
   2092   2104   2106     1   109.8000471 387.438400
   2093   2092   2104     1   109.5600471 388.275200
   2093   2092   2094     1   108.4600466 328.025600
   2094   2092   2104     1   109.5600471 388.275200
   2095   2098   2099     1   109.8000471 387.438400
   2095   2098   2100     1   109.8000471 387.438400
   2096   2095   2098     1   109.5600471 388.275200
   2096   2095   2097     1   108.4600466 328.025600
   2097   2095   2098     1   109.5600471 388.275200
   2098   2107   2108     1   109.5600471 388.275200
   2098   2107   2109     1   109.5600471 388.275200
   2099   2098   2107     1   109.8000471 387.438400
   2099   2098   2100     1   107.5800459 329.699200
   2100   2098   2107     1   109.8000471 387.438400
   2101   2113   2114     1   109.5600471 388.275200
   2101   2113   2115     1   109.5600471 388.275200
   2102   2101   2113     1   109.8000471 387.438400
   2102   2101   2103     1   107.5800459 329.699200
   2103   2101   2113     1   109.8000471 387.438400
   2104   2110   2111     1   109.5600471 388.275200
   2104   2110   2112     1   109.5600471 388.275200
   2105   2104   2110     1   109.8000471 387.438400
   2105   2104   2106     1   107.5800459 329.699200
   2106   2104   2110     1   109.8000471 387.438400
   2108   2107   2116     1   109.7800468 425.094400
   2108   2107   2109     1   108.4600466 328.025600
   2109   2107   2116     1   109.7800468 425.094400
   2111   2110   4304     1   109.7800468 425.094400
   2111   2110   2112     1   108.4600466 328.025600
   2112   2110   4304     1   109.7800468 425.094400
   2114   2113   4335     1   109.7800468 425.094400
   2114   2113   2115     1   108.4600466 328.025600
   2115   2113   4335     1   109.7800468 425.094400
   2117   2118   2119     1   109.8800469 414.216000
   2117   2118   2120     1   109.8800469 414.216000
   2117   2121   2122     1   109.8800469 414.216000
   2117   2121   2123     1   109.8800469 414.216000
   2117   2124   2125     1   109.8800469 414.216000
   2117   2124   2126     1   109.8800469 414.216000
   2118   2130   2131     1   109.8000471 387.438400
   2118   2130   2132     1   109.8000471 387.438400
   2119   2118   2130     1   109.5600471 388.275200
   2119   2118   2120     1   108.4600466 328.025600
   2120   2118   2130     1   109.5600471 388.275200
   2121   2133   2134     1   109.8000471 387.438400
   2121   2133   2135     1   109.8000471 387.438400
   2122   2121   2133     1   109.5600471 388.275200
   2122   2121   2123     1   108.4600466 328.025600
   2123   2121   2133     1   109.5600471 388.275200
   2124   2127   2128     1   109.8000471 387.438400
   2124   2127   2129     1   109.8000471 387.438400
   2125   2124   2127     1   109.5600471 388.275200
   2125   2124   2126     1   108.4600466 328.025600
   2126   2124   2127     1   109.5600471 388.275200
   2127   2136   2137     1   109.5600471 388.275200
   2127   2136   2138     1   109.5600471 388.275200
   2128   2127   2136     1   109.8000471 387.438400
   2128   2127   2129     1   107.5800459 329.699200
   2129   2127   2136     1   109.8000471 387.438400
   2130   2142   2143     1   109.5600471 388.275200
   2130   2142   2144     1   109.5600471 388.275200
   2131   2130   2142     1   109.8000471 387.438400
   2131   2130   2132     1   107.5800459 329.699200
   2132   2130   2142     1   109.8000471 387.438400
   2133   2139   2140     1   109.5600471 388.275200
   2133   2139   2141     1   109.5600471 388.275200
   2134   2133   2139     1   109.8000471 387.438400
   2134   2133   2135     1   107.5800459 329.699200
   2135   2133   2139     1   109.8000471 387.438400
   2137   2136   2145     1   109.7800468 425.094400
   2137   2136   2138     1   108.4600466 328.025600
   2138   2136   2145     1   109.7800468 425.094400
   2140   2139   4366     1   109.7800468 425.094400
   2140   2139   2141     1   108.4600466 328.025600
   2141   2139   4366     1   109.7800468 425.094400
   2143   2142   4397     1   109.7800468 425.094400
   2143   2142   2144     1   108.4600466 328.025600
   2144   2142   4397     1   109.7800468 425.094400
   2146   2147   2148     1   109.8800469 414.216000
   2146   2147   2149     1   109.8800469 414.216000
   2146   2150   2151     1   109.8800469 414.216000
   2146   2150   2152     1   109.8800469 414.216000
   2146   2153   2154     1   109.8800469 414.216000
   2146   2153   2155     1   109.8800469 414.216000
   2147   2159   2160     1   109.8000471 387.438400
   2147   2159   2161     1   109.8000471 387.438400
   2148   2147   2159     1   109.5600471 388.275200
   2148   2147   2149     1   108.4600466 328.025600
   2149   2147   2159     1   109.5600471 388.275200
   2150   2162   2163     1   109.8000471 387.438400
   2150   2162   2164     1   109.8000471 387.438400
   2151   2150   2162     1   109.5600471 388.275200
   2151   2150   2152     1   108.4600466 328.025600
   2152   2150   2162     1   109.5600471 388.275200
   2153   2156   2157     1   109.8000471 387.438400
   2153   2156   2158     1   109.8000471 387.438400
   2154   2153   2156     1   109.5600471 388.275200
   2154   2153   2155     1   108.4600466 328.025600
   2155   2153   2156     1   109.5600471 388.275200
   2156   2165   2166     1   109.5600471 388.275200
   2156   2165   2167     1   109.5600471 388.275200
   2157   2156   2165     1   109.8000471 387.438400
   2157   2156   2158     1   107.5800459 329.699200
   2158   2156   2165     1   109.8000471 387.438400
   2159   2171   2172     1   109.5600471 388.275200
   2159   2171   2173     1   109.5600471 388.275200
   2160   2159   2171     1   109.8000471 387.438400
   2160   2159   2161     1   107.5800459 329.699200
   2161   2159   2171     1   109.8000471 387.438400
   2162   2168   2169     1   109.5600471 388.275200
   2162   2168   2170     1   109.5600471 388.275200
   2163   2162   2168     1   109.8000471 387.438400
   2163   2162   2164     1   107.5800459 329.699200
   2164   2162   2168     1   109.8000471 387.438400
   2166   2165   2174     1   109.7800468 425.094400
   2166   2165   2167     1   108.4600466 328.025600
   2167   2165   2174     1   109.7800468 425.094400
   2169   2168   4428     1   109.7800468 425.094400
   2169   2168   2170     1   108.4600466 328.025600
   2170   2168   4428     1   109.7800468 425.094400
   2172   2171   4459     1   109.7800468 425.094400
   2172   2171   2173     1   108.4600466 328.025600
   2173   2171   4459     1   109.7800468 425.094400
   2175   2176   2177     1   109.8800469 414.216000
   2175   2176   2178     1   109.8800469 414.216000
   2175   2179   2180     1   109.8800469 414.216000
   2175   2179   2181     1   109.8800469 414.216000
   2175   2182   2183     1   109.8800469 414.216000
   2175   2182   2184     1   109.8800469 414.216000
   2176   2188   2189     1   109.8000471 387.438400
   2176   2188   2190     1   109.8000471 387.438400
   2177   2176   2188     1   109.5600471 388.275200
   2177   2176   2178     1   108.4600466 328.025600
   2178   2176   2188     1   109.5600471 388.275200
   2179   2191   2192     1   109.8000471 387.438400
   2179   2191   2193     1   109.8000471 387.438400
   2180   2179   2191     1   109.5600471 388.275200
   2180   2179   2181     1   108.4600466 328.025600
   2181   2179   2191     1   109.5600471 388.275200
   2182   2185   2186     1   109.8000471 387.438400
   2182   2185   2187     1   109.8000471 387.438400
   2183   2182   2185     1   109.5600471 388.275200
   2183   2182   2184     1   108.4600466 328.025600
   2184   2182   2185     1   109.5600471 388.275200
   2185   2194   2195     1   109.5600471 388.275200
   2185   2194   2196     1   109.5600471 388.275200
   2186   2185   2194     1   109.8000471 387.438400
   2186   2185   2187     1   107.5800459 329.699200
   2187   2185   2194     1   109.8000471 387.438400
   2188   2200   2201     1   109.5600471 388.275200
   2188   2200   2202     1   109.5600471 388.275200
   2189   2188   2200     1   109.8000471 387.438400
   2189   2188   2190     1   107.5800459 329.699200
   2190   2188   2200     1   109.8000471 387.438400
   2191   2197   2198     1   109.5600471 388.275200
   2191   2197   2199     1   109.5600471 388.275200
   2192   2191   2197     1   109.8000471 387.438400
   2192   2191   2193     1   107.5800459 329.699200
   2193   2191   2197     1   109.8000471 387.438400
   2195   2194   2203     1   109.7800468 425.094400
   2195   2194   2196     1   108.4600466 328.025600
   2196   2194   2203     1   109.7800468 425.094400
   2198   2197   4490     1   109.7800468 425.094400
   2198   2197   2199     1   108.4600466 328.025600
   2199   2197   4490     1   109.7800468 425.094400
   2201   2200   4521     1   109.7800468 425.094400
   2201   2200   2202     1   108.4600466 328.025600
   2202   2200   4521     1   109.7800468 425.094400
   2204   2205   2206     1   109.8800469 414.216000
   2204   2205   2207     1   109.8800469 414.216000
   2204   2208   2209     1   109.8800469 414.216000
   2204   2208   2210     1   109.8800469 414.216000
   2204   2211   2212     1   109.8800469 414.216000
   2204   2211   2213     1   109.8800469 414.216000
   2205   2217   2218     1   109.8000471 387.438400
   2205   2217   2219     1   109.8000471 387.438400
   2206   2205   2217     1   109.5600471 388.275200
   2206   2205   2207     1   108.4600466 328.025600
   2207   2205   2217     1   109.5600471 388.275200
   2208   2220   2221     1   109.8000471 387.438400
   2208   2220   2222     1   109.8000471 387.438400
   2209   2208   2220     1   109.5600471 388.275200
   2209   2208   2210     1   108.4600466 328.025600
   2210   2208   2220     1   109.5600471 388.275200
   2211   2214   2215     1   109.8000471 387.438400
   2211   2214   2216     1   109.8000471 387.438400
   2212   2211   2214     1   109.5600471 388.275200
   2212   2211   2213     1   108.4600466 328.025600
   2213   2211   2214     1   109.5600471 388.275200
   2214   2223   2224     1   109.5600471 388.275200
   2214   2223   2225     1   109.5600471 388.275200
   2215   2214   2223     1   109.8000471 387.438400
   2215   2214   2216     1   107.5800459 329.699200
   2216   2214   2223     1   109.8000471 387.438400
   2217   2229   2230     1   109.5600471 388.275200
   2217   2229   2231     1   109.5600471 388.275200
   2218   2217   2229     1   109.8000471 387.438400
   2218   2217   2219     1   107.5800459 329.699200
   2219   2217   2229     1   109.8000471 387.438400
   2220   2226   2227     1   109.5600471 388.275200
   2220   2226   2228     1   109.5600471 388.275200
   2221   2220   2226     1   109.8000471 387.438400
   2221   2220   2222     1   107.5800459 329.699200
   2222   2220   2226     1   109.8000471 387.438400
   2224   2223   2232     1   109.7800468 425.094400
   2224   2223   2225     1   108.4600466 328.025600
   2225   2223   2232     1   109.7800468 425.094400
   2227   2226   4552     1   109.7800468 425.094400
   2227   2226   2228     1   108.4600466 328.025600
   2228   2226   4552     1   109.7800468 425.094400
   2230   2229   4583     1   109.7800468 425.094400
   2230   2229   2231     1   108.4600466 328.025600
   2231   2229   4583     1   109.7800468 425.094400
   2233   2234   2235     1   109.8800469 414.216000
   2233   2234   2236     1   109.8800469 414.216000
   2233   2237   2238     1   109.8800469 414.216000
   2233   2237   2239     1   109.8800469 414.216000
   2233   2240   2241     1   109.8800469 414.216000
   2233   2240   2242     1   109.8800469 414.216000
   2234   2246   2247     1   109.8000471 387.438400
   2234   2246   2248     1   109.8000471 387.438400
   2235   2234   2246     1   109.5600471 388.275200
   2235   2234   2236     1   108.4600466 328.025600
   2236   2234   2246     1   109.5600471 388.275200
   2237   2249   2250     1   109.8000471 387.438400
   2237   2249   2251     1   109.8000471 387.438400
   2238   2237   2249     1   109.5600471 388.275200
   2238   2237   2239     1   108.4600466 328.025600
   2239   2237   2249     1   109.5600471 388.275200
   2240   2243   2244     1   109.8000471 387.438400
   2240   2243   2245     1   109.8000471 387.438400
   2241   2240   2243     1   109.5600471 388.275200
   2241   2240   2242     1   108.4600466 328.025600
   2242   2240   2243     1   109.5600471 388.275200
   2243   2252   2253     1   109.5600471 388.275200
   2243   2252   2254     1   109.5600471 388.275200
   2244   2243   2252     1   109.8000471 387.438400
   2244   2243   2245     1   107.5800459 329.699200
   2245   2243   2252     1   109.8000471 387.438400
   2246   2258   2259     1   109.5600471 388.275200
   2246   2258   2260     1   109.5600471 388.275200
   2247   2246   2258     1   109.8000471 387.438400
   2247   2246   2248     1   107.5800459 329.699200
   2248   2246   2258     1   109.8000471 387.438400
   2249   2255   2256     1   109.5600471 388.275200
   2249   2255   2257     1   109.5600471 388.275200
   2250   2249   2255     1   109.8000471 387.438400
   2250   2249   2251     1   107.5800459 329.699200
   2251   2249   2255     1   109.8000471 387.438400
   2253   2252   2261     1   109.7800468 425.094400
   2253   2252   2254     1   108.4600466 328.025600
   2254   2252   2261     1   109.7800468 425.094400
   2256   2255   4614     1   109.7800468 425.094400
   2256   2255   2257     1   108.4600466 328.025600
   2257   2255   4614     1   109.7800468 425.094400
   2259   2258   4645     1   109.7800468 425.094400
   2259   2258   2260     1   108.4600466 328.025600
   2260   2258   4645     1   109.7800468 425.094400
   2262   2263   2264     1   109.8800469 414.216000
   2262   2263   2265     1   109.8800469 414.216000
   2262   2266   2267     1   109.8800469 414.216000
   2262   2266   2268     1   109.8800469 414.216000
   2262   2269   2270     1   109.8800469 414.216000
   2262   2269   2271     1   109.8800469 414.216000
   2263   2275   2276     1   109.8000471 387.438400
   2263   2275   2277     1   109.8000471 387.438400
   2264   2263   2275     1   109.5600471 388.275200
   2264   2263   2265     1   108.4600466 328.025600
   2265   2263   2275     1   109.5600471 388.275200
   2266   2278   2279     1   109.8000471 387.438400
   2266   2278   2280     1   109.8000471 387.438400
   2267   2266   2278     1   109.5600471 388.275200
   2267   2266   2268     1   108.4600466 328.025600
   2268   2266   2278     1   109.5600471 388.275200
   2269   2272   2273     1   109.8000471 387.438400
   2269   2272   2274     1   109.8000471 387.438400
   2270   2269   2272     1   109.5600471 388.275200
   2270   2269   2271     1   108.4600466 328.025600
   2271   2269   2272     1   109.5600471 388.275200
   2272   2281   2282     1   109.5600471 388.275200
   2272   2281   2283     1   109.5600471 388.275200
   2273   2272   2281     1   109.8000471 387.438400
   2273   2272   2274     1   107.5800459 329.699200
   2274   2272   2281     1   109.8000471 387.438400
   2275   2287   2288     1   109.5600471 388.275200
   2275   2287   2289     1   109.5600471 388.275200
   2276   2275   2287     1   109.8000471 387.438400
   2276   2275   2277     1   107.5800459 329.699200
   2277   2275   2287     1   109.8000471 387.438400
   2278   2284   2285     1   109.5600471 388.275200
   2278   2284   2286     1   109.5600471 388.275200
   2279   2278   2284     1   109.8000471 387.438400
   2279   2278   2280     1   107.5800459 329.699200
   2280   2278   2284     1   109.8000471 387.438400
   2282   2281   2290     1   109.7800468 425.094400
   2282   2281   2283     1   108.4600466 328.025600
   2283   2281   2290     1   109.7800468 425.094400
   2285   2284   4676     1   109.7800468 425.094400
   2285   2284   2286     1   108.4600466 328.025600
   2286   2284   4676     1   109.7800468 425.094400
   2288   2287   4707     1   109.7800468 425.094400
   2288   2287   2289     1   108.4600466 328.025600
   2289   2287   4707     1   109.7800468 425.094400
   2291   2292   2293     1   109.8800469 414.216000
   2291   2292   2294     1   109.8800469 414.216000
   2291   2295   2296     1   109.8800469 414.216000
   2291   2295   2297     1   109.8800469 414.216000
   2291   2298   2299     1   109.8800469 414.216000
   2291   2298   2300     1   109.8800469 414.216000
   2292   2304   2305     1   109.8000471 387.438400
   2292   2304   2306     1   109.8000471 387.438400
   2293   2292   2304     1   109.5600471 388.275200
   2293   2292   2294     1   108.4600466 328.025600
   2294   2292   2304     1   109.5600471 388.275200
   2295   2307   2308     1   109.8000471 387.438400
   2295   2307   2309     1   109.8000471 387.438400
   2296   2295   2307     1   109.5600471 388.275200
   2296   2295   2297     1   108.4600466 328.025600
   2297   2295   2307     1   109.5600471 388.275200
   2298   2301   2302     1   109.8000471 387.438400
   2298   2301   2303     1   109.8000471 387.438400
   2299   2298   2301     1   109.5600471 388.275200
   2299   2298   2300     1   108.4600466 328.025600
   2300   2298   2301     1   109.5600471 388.275200
   2301   2310   2311     1   109.5600471 388.275200
   2301   2310   2312     1   109.5600471 388.275200
   2302   2301   2310     1   109.8000471 387.438400
   2302   2301   2303     1   107.5800459 329.699200
   2303   2301   2310     1   109.8000471 387.438400
   2304   2316   2317     1   109.5600471 388.275200
   2304   2316   2318     1   109.5600471 388.275200
   2305   2304   2316     1   109.8000471 387.438400
   2305   2304   2306     1   107.5800459 329.699200
   2306   2304   2316     1   109.8000471 387.438400
   2307   2313   2314     1   109.5600471 388.275200
   2307   2313   2315     1   109.5600471 388.275200
   2308   2307   2313     1   109.8000471 387.438400
   2308   2307   2309     1   107.5800459 329.699200
   2309   2307   2313     1   109.8000471 387.438400
   2311   2310   2319     1   109.7800468 425.094400
   2311   2310   2312     1   108.4600466 328.025600
   2312   2310   2319     1   109.7800468 425.094400
   2314   2313   4738     1   109.7800468 425.094400
   2314   2313   2315     1   108.4600466 328.025600
   2315   2313   4738     1   109.7800468 425.094400
   2317   2316   4769     1   109.7800468 425.094400
   2317   2316   2318     1   108.4600466 328.025600
   2318   2316   4769     1   109.7800468 425.094400
   2320   2321   2322     1   109.8800469 414.216000
   2320   2321   2323     1   109.8800469 414.216000
   2320   2324   2325     1   109.8800469 414.216000
   2320   2324   2326     1   109.8800469 414.216000
   2320   2327   2328     1   109.8800469 414.216000
   2320   2327   2329     1   109.8800469 414.216000
   2321   2333   2334     1   109.8000471 387.438400
   2321   2333   2335     1   109.8000471 387.438400
   2322   2321   2333     1   109.5600471 388.275200
   2322   2321   2323     1   108.4600466 328.025600
   2323   2321   2333     1   109.5600471 388.275200
   2324   2336   2337     1   109.8000471 387.438400
   2324   2336   2338     1   109.8000471 387.438400
   2325   2324   2336     1   109.5600471 388.275200
   2325   2324   2326     1   108.4600466 328.025600
   2326   2324   2336     1   109.5600471 388.275200
   2327   2330   2331     1   109.8000471 387.438400
   2327   2330   2332     1   109.8000471 387.438400
   2328   2327   2330     1   109.5600471 388.275200
   2328   2327   2329     1   108.4600466 328.025600
   2329   2327   2330     1   109.5600471 388.275200
   2330   2339   2340     1   109.5600471 388.275200
   2330   2339   2341     1   109.5600471 388.275200
   2331   2330   2339     1   109.8000471 387.438400
   2331   2330   2332     1   107.5800459 329.699200
   2332   2330   2339     1   109.8000471 387.438400
   2333   2345   2346     1   109.5600471 388.275200
   2333   2345   2347     1   109.5600471 388.275200
   2334   2333   2345     1   109.8000471 387.438400
   2334   2333   2335     1   107.5800459 329.699200
   2335   2333   2345     1   109.8000471 387.438400
   2336   2342   2343     1   109.5600471 388.275200
   2336   2342   2344     1   109.5600471 388.275200
   2337   2336   2342     1   109.8000471 387.438400
   2337   2336   2338     1   107.5800459 329.699200
   2338   2336   2342     1   109.8000471 387.438400
   2340   2339   2348     1   109.7800468 425.094400
   2340   2339   2341     1   108.4600466 328.025600
   2341   2339   2348     1   109.7800468 425.094400
   2343   2342   4800     1   109.7800468 425.094400
   2343   2342   2344     1   108.4600466 328.025600
   2344   2342   4800     1   109.7800468 425.094400
   2346   2345   4831     1   109.7800468 425.094400
   2346   2345   2347     1   108.4600466 328.025600
   2347   2345   4831     1   109.7800468 425.094400
   2349   2350   2351     1   109.8800469 414.216000
   2349   2350   2352     1   109.8800469 414.216000
   2349   2353   2354     1   109.8800469 414.216000
   2349   2353   2355     1   109.8800469 414.216000
   2349   2356   2357     1   109.8800469 414.216000
   2349   2356   2358     1   109.8800469 414.216000
   2350   2362   2363     1   109.8000471 387.438400
   2350   2362   2364     1   109.8000471 387.438400
   2351   2350   2362     1   109.5600471 388.275200
   2351   2350   2352     1   108.4600466 328.025600
   2352   2350   2362     1   109.5600471 388.275200
   2353   2365   2366     1   109.8000471 387.438400
   2353   2365   2367     1   109.8000471 387.438400
   2354   2353   2365     1   109.5600471 388.275200
   2354   2353   2355     1   108.4600466 328.025600
   2355   2353   2365     1   109.5600471 388.275200
   2356   2359   2360     1   109.8000471 387.438400
   2356   2359   2361     1   109.8000471 387.438400
   2357   2356   2359     1   109.5600471 388.275200
   2357   2356   2358     1   108.4600466 328.025600
   2358   2356   2359     1   109.5600471 388.275200
   2359   2368   2369     1   109.5600471 388.275200
   2359   2368   2370     1   109.5600471 388.275200
   2360   2359   2368     1   109.8000471 387.438400
   2360   2359   2361     1   107.5800459 329.699200
   2361   2359   2368     1   109.8000471 387.438400
   2362   2374   2375     1   109.5600471 388.275200
   2362   2374   2376     1   109.5600471 388.275200
   2363   2362   2374     1   109.8000471 387.438400
   2363   2362   2364     1   107.5800459 329.699200
   2364   2362   2374     1   109.8000471 387.438400
   2365   2371   2372     1   109.5600471 388.275200
   2365   2371   2373     1   109.5600471 388.275200
   2366   2365   2371     1   109.8000471 387.438400
   2366   2365   2367     1   107.5800459 329.699200
   2367   2365   2371     1   109.8000471 387.438400
   2369   2368   2377     1   109.7800468 425.094400
   2369   2368   2370     1   108.4600466 328.025600
   2370   2368   2377     1   109.7800468 425.094400
   2372   2371   4862     1   109.7800468 425.094400
   2372   2371   2373     1   108.4600466 328.025600
   2373   2371   4862     1   109.7800468 425.094400
   2375   2374   4893     1   109.7800468 425.094400
   2375   2374   2376     1   108.4600466 328.025600
   2376   2374   4893     1   109.7800468 425.094400
   2378   2379   2380     1   109.8800469 414.216000
   2378   2379   2381     1   109.8800469 414.216000
   2378   2382   2383     1   109.8800469 414.216000
   2378   2382   2384     1   109.8800469 414.216000
   2378   2385   2386     1   109.8800469 414.216000
   2378   2385   2387     1   109.8800469 414.216000
   2379   2391   2392     1   109.8000471 387.438400
   2379   2391   2393     1   109.8000471 387.438400
   2380   2379   2391     1   109.5600471 388.275200
   2380   2379   2381     1   108.4600466 328.025600
   2381   2379   2391     1   109.5600471 388.275200
   2382   2394   2395     1   109.8000471 387.438400
   2382   2394   2396     1   109.8000471 387.438400
   2383   2382   2394     1   109.5600471 388.275200
   2383   2382   2384     1   108.4600466 328.025600
   2384   2382   2394     1   109.5600471 388.275200
   2385   2388   2389     1   109.8000471 387.438400
   2385   2388   2390     1   109.8000471 387.438400
   2386   2385   2388     1   109.5600471 388.275200
   2386   2385   2387     1   108.4600466 328.025600
   2387   2385   2388     1   109.5600471 388.275200
   2388   2397   2398     1   109.5600471 388.275200
   2388   2397   2399     1   109.5600471 388.275200
   2389   2388   2397     1   109.8000471 387.438400
   2389   2388   2390     1   107.5800459 329.699200
   2390   2388   2397     1   109.8000471 387.438400
   2391   2403   2404     1   109.5600471 388.275200
   2391   2403   2405     1   109.5600471 388.275200
   2392   2391   2403     1   109.8000471 387.438400
   2392   2391   2393     1   107.5800459 329.699200
   2393   2391   2403     1   109.8000471 387.438400
   2394   2400   2401     1   109.5600471 388.275200
   2394   2400   2402     1   109.5600471 388.275200
   2395   2394   2400     1   109.8000471 387.438400
   2395   2394   2396     1   107.5800459 329.699200
   2396   2394   2400     1   109.8000471 387.438400
   2398   2397   2406     1   109.7800468 425.094400
   2398   2397   2399     1   108.4600466 328.025600
   2399   2397   2406     1   109.7800468 425.094400
   2401   2400   4924     1   109.7800468 425.094400
   2401   2400   2402     1   108.4600466 328.025600
   2402   2400   4924     1   109.7800468 425.094400
   2404   2403   4955     1   109.7800468 425.094400
   2404   2403   2405     1   108.4600466 328.025600
   2405   2403   4955     1   109.7800468 425.094400
   2407   2408   2409     1   109.8800469 414.216000
   2407   2408   2410     1   109.8800469 414.216000
   2407   2411   2412     1   109.8800469 414.216000
   2407   2411   2413     1   109.8800469 414.216000
   2407   2414   2415     1   109.8800469 414.216000
   2407   2414   2416     1   109.8800469 414.216000
   2408   2420   2421     1   109.8000471 387.438400
   2408   2420   2422     1   109.8000471 387.438400
   2409   2408   2420     1   109.5600471 388.275200
   2409   2408   2410     1   108.4600466 328.025600
   2410   2408   2420     1   109.5600471 388.275200
   2411   2423   2424     1   109.8000471 387.438400
   2411   2423   2425     1   109.8000471 387.438400
   2412   2411   2423     1   109.5600471 388.275200
   2412   2411   2413     1   108.4600466 328.025600
   2413   2411   2423     1   109.5600471 388.275200
   2414   2417   2418     1   109.8000471 387.438400
   2414   2417   2419     1   109.8000471 387.438400
   2415   2414   2417     1   109.5600471 388.275200
   2415   2414   2416     1   108.4600466 328.025600
   2416   2414   2417     1   109.5600471 388.275200
   2417   2426   2427     1   109.5600471 388.275200
   2417   2426   2428     1   109.5600471 388.275200
   2418   2417   2426     1   109.8000471 387.438400
   2418   2417   2419     1   107.5800459 329.699200
   2419   2417   2426     1   109.8000471 387.438400
   2420   2432   2433     1   109.5600471 388.275200
   2420   2432   2434     1   109.5600471 388.275200
   2421   2420   2432     1   109.8000471 387.438400
   2421   2420   2422     1   107.5800459 329.699200
   2422   2420   2432     1   109.8000471 387.438400
   2423   2429   2430     1   109.5600471 388.275200
   2423   2429   2431     1   109.5600471 388.275200
   2424   2423   2429     1   109.8000471 387.438400
   2424   2423   2425     1   107.5800459 329.699200
   2425   2423   2429     1   109.8000471 387.438400
   2427   2426   2435     1   109.7800468 425.094400
   2427   2426   2428     1   108.4600466 328.025600
   2428   2426   2435     1   109.7800468 425.094400
   2430   2429   4986     1   109.7800468 425.094400
   2430   2429   2431     1   108.4600466 328.025600
   2431   2429   4986     1   109.7800468 425.094400
   2433   2432   5017     1   109.7800468 425.094400
   2433   2432   2434     1   108.4600466 328.025600
   2434   2432   5017     1   109.7800468 425.094400
   2436   2437   2438     1   109.8800469 414.216000
   2436   2437   2439     1   109.8800469 414.216000
   2436   2440   2441     1   109.8800469 414.216000
   2436   2440   2442     1   109.8800469 414.216000
   2436   2443   2444     1   109.8800469 414.216000
   2436   2443   2445     1   109.8800469 414.216000
   2437   2449   2450     1   109.8000471 387.438400
   2437   2449   2451     1   109.8000471 387.438400
   2438   2437   2449     1   109.5600471 388.275200
   2438   2437   2439     1   108.4600466 328.025600
   2439   2437   2449     1   109.5600471 388.275200
   2440   2452   2453     1   109.8000471 387.438400
   2440   2452   2454     1   109.8000471 387.438400
   2441   2440   2452     1   109.5600471 388.275200
   2441   2440   2442     1   108.4600466 328.025600
   2442   2440   2452     1   109.5600471 388.275200
   2443   2446   2447     1   109.8000471 387.438400
   2443   2446   2448     1   109.8000471 387.438400
   2444   2443   2446     1   109.5600471 388.275200
   2444   2443   2445     1   108.4600466 328.025600
   2445   2443   2446     1   109.5600471 388.275200
   2446   2455   2456     1   109.5600471 388.275200
   2446   2455   2457     1   109.5600471 388.275200
   2447   2446   2455     1   109.8000471 387.438400
   2447   2446   2448     1   107.5800459 329.699200
   2448   2446   2455     1   109.8000471 387.438400
   2449   2461   2462     1   109.5600471 388.275200
   2449   2461   2463     1   109.5600471 388.275200
   2450   2449   2461     1   109.8000471 387.438400
   2450   2449   2451     1   107.5800459 329.699200
   2451   2449   2461     1   109.8000471 387.438400
   2452   2458   2459     1   109.5600471 388.275200
   2452   2458   2460     1   109.5600471 388.275200
   2453   2452   2458     1   109.8000471 387.438400
   2453   2452   2454     1   107.5800459 329.699200
   2454   2452   2458     1   109.8000471 387.438400
   2456   2455   2464     1   109.7800468 425.094400
   2456   2455   2457     1   108.4600466 328.025600
   2457   2455   2464     1   109.7800468 425.094400
   2459   2458   5048     1   109.7800468 425.094400
   2459   2458   2460     1   108.4600466 328.025600
   2460   2458   5048     1   109.7800468 425.094400
   2462   2461   5079     1   109.7800468 425.094400
   2462   2461   2463     1   108.4600466 328.025600
   2463   2461   5079     1   109.7800468 425.094400
   2465   2466   2467     1   109.8800469 414.216000
   2465   2466   2468     1   109.8800469 414.216000
   2465   2469   2470     1   109.8800469 414.216000
   2465   2469   2471     1   109.8800469 414.216000
   2465   2472   2473     1   109.8800469 414.216000
   2465   2472   2474     1   109.8800469 414.216000
   2466   2478   2479     1   109.8000471 387.438400
   2466   2478   2480     1   109.8000471 387.438400
   2467   2466   2478     1   109.5600471 388.275200
   2467   2466   2468     1   108.4600466 328.025600
   2468   2466   2478     1   109.5600471 388.275200
   2469   2481   2482     1   109.8000471 387.438400
   2469   2481   2483     1   109.8000471 387.438400
   2470   2469   2481     1   109.5600471 388.275200
   2470   2469   2471     1   108.4600466 328.025600
   2471   2469   2481     1   109.5600471 388.275200
   2472   2475   2476     1   109.8000471 387.438400
   2472   2475   2477     1   109.8000471 387.438400
   2473   2472   2475     1   109.5600471 388.275200
   2473   2472   2474     1   108.4600466 328.025600
   2474   2472   2475     1   109.5600471 388.275200
   2475   2484   2485     1   109.5600471 388.275200
   2475   2484   2486     1   109.5600471 388.275200
   2476   2475   2484     1   109.8000471 387.438400
   2476   2475   2477     1   107.5800459 329.699200
   2477   2475   2484     1   109.8000471 387.438400
   2478   2490   2491     1   109.5600471 388.275200
   2478   2490   2492     1   109.5600471 388.275200
   2479   2478   2490     1   109.8000471 387.438400
   2479   2478   2480     1   107.5800459 329.699200
   2480   2478   2490     1   109.8000471 387.438400
   2481   2487   2488     1   109.5600471 388.275200
   2481   2487   2489     1   109.5600471 388.275200
   2482   2481   2487     1   109.8000471 387.438400
   2482   2481   2483     1   107.5800459 329.699200
   2483   2481   2487     1   109.8000471 387.438400
   2485   2484   2493     1   109.7800468 425.094400
   2485   2484   2486     1   108.4600466 328.025600
   2486   2484   2493     1   109.7800468 425.094400
   2488   2487   5110     1   109.7800468 425.094400
   2488   2487   2489     1   108.4600466 328.025600
   2489   2487   5110     1   109.7800468 425.094400
   2491   2490   5141     1   109.7800468 425.094400
   2491   2490   2492     1   108.4600466 328.025600
   2492   2490   5141     1   109.7800468 425.094400
   2494   2495   2496     1   109.8800469 414.216000
   2494   2495   2497     1   109.8800469 414.216000
   2494   2498   2499     1   109.8800469 414.216000
   2494   2498   2500     1   109.8800469 414.216000
   2494   2501   2502     1   109.8800469 414.216000
   2494   2501   2503     1   109.8800469 414.216000
   2495   2507   2508     1   109.8000471 387.438400
   2495   2507   2509     1   109.8000471 387.438400
   2496   2495   2507     1   109.5600471 388.275200
   2496   2495   2497     1   108.4600466 328.025600
   2497   2495   2507     1   109.5600471 388.275200
   2498   2510   2511     1   109.8000471 387.438400
   2498   2510   2512     1   109.8000471 387.438400
   2499   2498   2510     1   109.5600471 388.275200
   2499   2498   2500     1   108.4600466 328.025600
   2500   2498   2510     1   109.5600471 388.275200
   2501   2504   2505     1   109.8000471 387.438400
   2501   2504   2506     1   109.8000471 387.438400
   2502   2501   2504     1   109.5600471 388.275200
   2502   2501   2503     1   108.4600466 328.025600
   2503   2501   2504     1   109.5600471 388.275200
   2504   2513   2514     1   109.5600471 388.275200
   2504   2513   2515     1   109.5600471 388.275200
   2505   2504   2513     1   109.8000471 387.438400
   2505   2504   2506     1   107.5800459 329.699200
   2506   2504   2513     1   109.8000471 387.438400
   2507   2519   2520     1   109.5600471 388.275200
   2507   2519   2521     1   109.5600471 388.275200
   2508   2507   2519     1   109.8000471 387.438400
   2508   2507   2509     1   107.5800459 329.699200
   2509   2507   2519     1   109.8000471 387.438400
   2510   2516   2517     1   109.5600471 388.275200
   2510   2516   2518     1   109.5600471 388.275200
   2511   2510   2516     1   109.8000471 387.438400
   2511   2510   2512     1   107.5800459 329.699200
   2512   2510   2516     1   109.8000471 387.438400
   2514   2513   2522     1   109.7800468 425.094400
   2514   2513   2515     1   108.4600466 328.025600
   2515   2513   2522     1   109.7800468 425.094400
   2517   2516   5172     1   109.7800468 425.094400
   2517   2516   2518     1   108.4600466 328.025600
   2518   2516   5172     1   109.7800468 425.094400
   2520   2519   5203     1   109.7800468 425.094400
   2520   2519   2521     1   108.4600466 328.025600
   2521   2519   5203     1   109.7800468 425.094400
   2523   2524   2525     1   109.8800469 414.216000
   2523   2524   2526     1   109.8800469 414.216000
   2523   2527   2528     1   109.8800469 414.216000
   2523   2527   2529     1   109.8800469 414.216000
   2523   2530   2531     1   109.8800469 414.216000
   2523   2530   2532     1   109.8800469 414.216000
   2524   2536   2537     1   109.8000471 387.438400
   2524   2536   2538     1   109.8000471 387.438400
   2525   2524   2536     1   109.5600471 388.275200
   2525   2524   2526     1   108.4600466 328.025600
   2526   2524   2536     1   109.5600471 388.275200
   2527   2539   2540     1   109.8000471 387.438400
   2527   2539   2541     1   109.8000471 387.438400
   2528   2527   2539     1   109.5600471 388.275200
   2528   2527   2529     1   108.4600466 328.025600
   2529   2527   2539     1   109.5600471 388.275200
   2530   2533   2534     1   109.8000471 387.438400
   2530   2533   2535     1   109.8000471 387.438400
   2531   2530   2533     1   109.5600471 388.275200
   2531   2530   2532     1   108.4600466 328.025600
   2532   2530   2533     1   109.5600471 388.275200
   2533   2542   2543     1   109.5600471 388.275200
   2533   2542   2544     1   109.5600471 388.275200
   2534   2533   2542     1   109.8000471 387.438400
   2534   2533   2535     1   107.5800459 329.699200
   2535   2533   2542     1   109.8000471 387.438400
   2536   2548   2549     1   109.5600471 388.275200
   2536   2548   2550     1   109.5600471 388.275200
   2537   2536   2548     1   109.8000471 387.438400
   2537   2536   2538     1   107.5800459 329.699200
   2538   2536   2548     1   109.8000471 387.438400
   2539   2545   2546     1   109.5600471 388.275200
   2539   2545   2547     1   109.5600471 388.275200
   2540   2539   2545     1   109.8000471 387.438400
   2540   2539   2541     1   107.5800459 329.699200
   2541   2539   2545     1   109.8000471 387.438400
   2543   2542   2551     1   109.7800468 425.094400
   2543   2542   2544     1   108.4600466 328.025600
   2544   2542   2551     1   109.7800468 425.094400
   2546   2545   5234     1   109.7800468 425.094400
   2546   2545   2547     1   108.4600466 328.025600
   2547   2545   5234     1   109.7800468 425.094400
   2549   2548   5265     1   109.7800468 425.094400
   2549   2548   2550     1   108.4600466 328.025600
   2550   2548   5265     1   109.7800468 425.094400
   2552   2553   2554     1   109.8800469 414.216000
   2552   2553   2555     1   109.8800469 414.216000
   2552   2556   2557     1   109.8800469 414.216000
   2552   2556   2558     1   109.8800469 414.216000
   2552   2559   2560     1   109.8800469 414.216000
   2552   2559   2561     1   109.8800469 414.216000
   2553   2565   2566     1   109.8000471 387.438400
   2553   2565   2567     1   109.8000471 387.438400
   2554   2553   2565     1   109.5600471 388.275200
   2554   2553   2555     1   108.4600466 328.025600
   2555   2553   2565     1   109.5600471 388.275200
   2556   2568   2569     1   109.8000471 387.438400
   2556   2568   2570     1   109.8000471 387.438400
   2557   2556   2568     1   109.5600471 388.275200
   2557   2556   2558     1   108.4600466 328.025600
   2558   2556   2568     1   109.5600471 388.275200
   2559   2562   2563     1   109.8000471 387.438400
   2559   2562   2564     1   109.8000471 387.438400
   2560   2559   2562     1   109.5600471 388.275200
   2560   2559   2561     1   108.4600466 328.025600
   2561   2559   2562     1   109.5600471 388.275200
   2562   2571   2572     1   109.5600471 388.275200
   2562   2571   2573     1   109.5600471 388.275200
   2563   2562   2571     1   109.8000471 387.438400
   2563   2562   2564     1   107.5800459 329.699200
   2564   2562   2571     1   109.8000471 387.438400
   2565   2577   2578     1   109.5600471 388.275200
   2565   2577   2579     1   109.5600471 388.275200
   2566   2565   2577     1   109.8000471 387.438400
   2566   2565   2567     1   107.5800459 329.699200
   2567   2565   2577     1   109.8000471 387.438400
   2568   2574   2575     1   109.5600471 388.275200
   2568   2574   2576     1   109.5600471 388.275200
   2569   2568   2574     1   109.8000471 387.438400
   2569   2568   2570     1   107.5800459 329.699200
   2570   2568   2574     1   109.8000471 387.438400
   2572   2571   2580     1   109.7800468 425.094400
   2572   2571   2573     1   108.4600466 328.025600
   2573   2571   2580     1   109.7800468 425.094400
   2575   2574   5296     1   109.7800468 425.094400
   2575   2574   2576     1   108.4600466 328.025600
   2576   2574   5296     1   109.7800468 425.094400
   2578   2577   5327     1   109.7800468 425.094400
   2578   2577   2579     1   108.4600466 328.025600
   2579   2577   5327     1   109.7800468 425.094400
   2581   2582   2583     1   109.8800469 414.216000
   2581   2582   2584     1   109.8800469 414.216000
   2581   2585   2586     1   109.8800469 414.216000
   2581   2585   2587     1   109.8800469 414.216000
   2581   2588   2589     1   109.8800469 414.216000
   2581   2588   2590     1   109.8800469 414.216000
   2582   2594   2595     1   109.8000471 387.438400
   2582   2594   2596     1   109.8000471 387.438400
   2583   2582   2594     1   109.5600471 388.275200
   2583   2582   2584     1   108.4600466 328.025600
   2584   2582   2594     1   109.5600471 388.275200
   2585   2597   2598     1   109.8000471 387.438400
   2585   2597   2599     1   109.8000471 387.438400
   2586   2585   2597     1   109.5600471 388.275200
   2586   2585   2587     1   108.4600466 328.025600
   2587   2585   2597     1   109.5600471 388.275200
   2588   2591   2592     1   109.8000471 387.438400
   2588   2591   2593     1   109.8000471 387.438400
   2589   2588   2591     1   109.5600471 388.275200
   2589   2588   2590     1   108.4600466 328.025600
   2590   2588   2591     1   109.5600471 388.275200
   2591   2600   2601     1   109.5600471 388.275200
   2591   2600   2602     1   109.5600471 388.275200
   2592   2591   2600     1   109.8000471 387.438400
   2592   2591   2593     1   107.5800459 329.699200
   2593   2591   2600     1   109.8000471 387.438400
   2594   2606   2607     1   109.5600471 388.275200
   2594   2606   2608     1   109.5600471 388.275200
   2595   2594   2606     1   109.8000471 387.438400
   2595   2594   2596     1   107.5800459 329.699200
   2596   2594   2606     1   109.8000471 387.438400
   2597   2603   2604     1   109.5600471 388.275200
   2597   2603   2605     1   109.5600471 388.275200
   2598   2597   2603     1   109.8000471 387.438400
   2598   2597   2599     1   107.5800459 329.699200
   2599   2597   2603     1   109.8000471 387.438400
   2601   2600   2609     1   109.7800468 425.094400
   2601   2600   2602     1   108.4600466 328.025600
   2602   2600   2609     1   109.7800468 425.094400
   2604   2603   5358     1   109.7800468 425.094400
   2604   2603   2605     1   108.4600466 328.025600
   2605   2603   5358     1   109.7800468 425.094400
   2607   2606   5389     1   109.7800468 425.094400
   2607   2606   2608     1   108.4600466 328.025600
   2608   2606   5389     1   109.7800468 425.094400
   2610   2611   2612     1   109.8800469 414.216000
   2610   2611   2613     1   109.8800469 414.216000
   2610   2614   2615     1   109.8800469 414.216000
   2610   2614   2616     1   109.8800469 414.216000
   2610   2617   2618     1   109.8800469 414.216000
   2610   2617   2619     1   109.8800469 414.216000
   2611   2623   2624     1   109.8000471 387.438400
   2611   2623   2625     1   109.8000471 387.438400
   2612   2611   2623     1   109.5600471 388.275200
   2612   2611   2613     1   108.4600466 328.025600
   2613   2611   2623     1   109.5600471 388.275200
   2614   2626   2627     1   109.8000471 387.438400
   2614   2626   2628     1   109.8000471 387.438400
   2615   2614   2626     1   109.5600471 388.275200
   2615   2614   2616     1   108.4600466 328.025600
   2616   2614   2626     1   109.5600471 388.275200
   2617   2620   2621     1   109.8000471 387.438400
   2617   2620   2622     1   109.8000471 387.438400
   2618   2617   2620     1   109.5600471 388.275200
   2618   2617   2619     1   108.4600466 328.025600
   2619   2617   2620     1   109.5600471 388.275200
   2620   2629   2630     1   109.5600471 388.275200
   2620   2629   2631     1   109.5600471 388.275200
   2621   2620   2629     1   109.8000471 387.438400
   2621   2620   2622     1   107.5800459 329.699200
   2622   2620   2629     1   109.8000471 387.438400
   2623   2635   2636     1   109.5600471 388.275200
   2623   2635   2637     1   109.5600471 388.275200
   2624   2623   2635     1   109.8000471 387.438400
   2624   2623   2625     1   107.5800459 329.699200
   2625   2623   2635     1   109.8000471 387.438400
   2626   2632   2633     1   109.5600471 388.275200
   2626   2632   2634     1   109.5600471 388.275200
   2627   2626   2632     1   109.8000471 387.438400
   2627   2626   2628     1   107.5800459 329.699200
   2628   2626   2632     1   109.8000471 387.438400
   2630   2629   2638     1   109.7800468 425.094400
   2630   2629   2631     1   108.4600466 328.025600
   2631   2629   2638     1   109.7800468 425.094400
   2633   2632   5420     1   109.7800468 425.094400
   2633   2632   2634     1   108.4600466 328.025600
   2634   2632   5420     1   109.7800468 425.094400
   2636   2635   5451     1   109.7800468 425.094400
   2636   2635   2637     1   108.4600466 328.025600
   2637   2635   5451     1   109.7800468 425.094400
   2639   2640   2641     1   109.8800469 414.216000
   2639   2640   2642     1   109.8800469 414.216000
   2639   2643   2644     1   109.8800469 414.216000
   2639   2643   2645     1   109.8800469 414.216000
   2639   2646   2647     1   109.8800469 414.216000
   2639   2646   2648     1   109.8800469 414.216000
   2640   2652   2653     1   109.8000471 387.438400
   2640   2652   2654     1   109.8000471 387.438400
   2641   2640   2652     1   109.5600471 388.275200
   2641   2640   2642     1   108.4600466 328.025600
   2642   2640   2652     1   109.5600471 388.275200
   2643   2655   2656     1   109.8000471 387.438400
   2643   2655   2657     1   109.8000471 387.438400
   2644   2643   2655     1   109.5600471 388.275200
   2644   2643   2645     1   108.4600466 328.025600
   2645   2643   2655     1   109.5600471 388.275200
   2646   2649   2650     1   109.8000471 387.438400
   2646   2649   2651     1   109.8000471 387.438400
   2647   2646   2649     1   109.5600471 388.275200
   2647   2646   2648     1   108.4600466 328.025600
   2648   2646   2649     1   109.5600471 388.275200
   2649   2658   2659     1   109.5600471 388.275200
   2649   2658   2660     1   109.5600471 388.275200
   2650   2649   2658     1   109.8000471 387.438400
   2650   2649   2651     1   107.5800459 329.699200
   2651   2649   2658     1   109.8000471 387.438400
   2652   2664   2665     1   109.5600471 388.275200
   2652   2664   2666     1   109.5600471 388.275200
   2653   2652   2664     1   109.8000471 387.438400
   2653   2652   2654     1   107.5800459 329.699200
   2654   2652   2664     1   109.8000471 387.438400
   2655   2661   2662     1   109.5600471 388.275200
   2655   2661   2663     1   109.5600471 388.275200
   2656   2655   2661     1   109.8000471 387.438400
   2656   2655   2657     1   107.5800459 329.699200
   2657   2655   2661     1   109.8000471 387.438400
   2659   2658   2667     1   109.7800468 425.094400
   2659   2658   2660     1   108.4600466 328.025600
   2660   2658   2667     1   109.7800468 425.094400
   2662   2661   5482     1   109.7800468 425.094400
   2662   2661   2663     1   108.4600466 328.025600
   2663   2661   5482     1   109.7800468 425.094400
   2665   2664   5513     1   109.7800468 425.094400
   2665   2664   2666     1   108.4600466 328.025600
   2666   2664   5513     1   109.7800468 425.094400
   2668   2669   2670     1   109.8800469 414.216000
   2668   2669   2671     1   109.8800469 414.216000
   2668   2672   2673     1   109.8800469 414.216000
   2668   2672   2674     1   109.8800469 414.216000
   2668   2675   2676     1   109.8800469 414.216000
   2668   2675   2677     1   109.8800469 414.216000
   2669   2681   2682     1   109.8000471 387.438400
   2669   2681   2683     1   109.8000471 387.438400
   2670   2669   2681     1   109.5600471 388.275200
   2670   2669   2671     1   108.4600466 328.025600
   2671   2669   2681     1   109.5600471 388.275200
   2672   2684   2685     1   109.8000471 387.438400
   2672   2684   2686     1   109.8000471 387.438400
   2673   2672   2684     1   109.5600471 388.275200
   2673   2672   2674     1   108.4600466 328.025600
   2674   2672   2684     1   109.5600471 388.275200
   2675   2678   2679     1   109.8000471 387.438400
   2675   2678   2680     1   109.8000471 387.438400
   2676   2675   2678     1   109.5600471 388.275200
   2676   2675   2677     1   108.4600466 328.025600
   2677   2675   2678     1   109.5600471 388.275200
   2678   2687   2688     1   109.5600471 388.275200
   2678   2687   2689     1   109.5600471 388.275200
   2679   2678   2687     1   109.8000471 387.438400
   2679   2678   2680     1   107.5800459 329.699200
   2680   2678   2687     1   109.8000471 387.438400
   2681   2693   2694     1   109.5600471 388.275200
   2681   2693   2695     1   109.5600471 388.275200
   2682   2681   2693     1   109.8000471 387.438400
   2682   2681   2683     1   107.5800459 329.699200
   2683   2681   2693     1   109.8000471 387.438400
   2684   2690   2691     1   109.5600471 388.275200
   2684   2690   2692     1   109.5600471 388.275200
   2685   2684   2690     1   109.8000471 387.438400
   2685   2684   2686     1   107.5800459 329.699200
   2686   2684   2690     1   109.8000471 387.438400
   2688   2687   2696     1   109.7800468 425.094400
   2688   2687   2689     1   108.4600466 328.025600
   2689   2687   2696     1   109.7800468 425.094400
   2691   2690   5544     1   109.7800468 425.094400
   2691   2690   2692     1   108.4600466 328.025600
   2692   2690   5544     1   109.7800468 425.094400
   2694   2693   5575     1   109.7800468 425.094400
   2694   2693   2695     1   108.4600466 328.025600
   2695   2693   5575     1   109.7800468 425.094400
   2697   2698   2699     1   109.8800469 414.216000
   2697   2698   2700     1   109.8800469 414.216000
   2697   2701   2702     1   109.8800469 414.216000
   2697   2701   2703     1   109.8800469 414.216000
   2697   2704   2705     1   109.8800469 414.216000
   2697   2704   2706     1   109.8800469 414.216000
   2698   2710   2711     1   109.8000471 387.438400
   2698   2710   2712     1   109.8000471 387.438400
   2699   2698   2710     1   109.5600471 388.275200
   2699   2698   2700     1   108.4600466 328.025600
   2700   2698   2710     1   109.5600471 388.275200
   2701   2713   2714     1   109.8000471 387.438400
   2701   2713   2715     1   109.8000471 387.438400
   2702   2701   2713     1   109.5600471 388.275200
   2702   2701   2703     1   108.4600466 328.025600
   2703   2701   2713     1   109.5600471 388.275200
   2704   2707   2708     1   109.8000471 387.438400
   2704   2707   2709     1   109.8000471 387.438400
   2705   2704   2707     1   109.5600471 388.275200
   2705   2704   2706     1   108.4600466 328.025600
   2706   2704   2707     1   109.5600471 388.275200
   2707   2716   2717     1   109.5600471 388.275200
   2707   2716   2718     1   109.5600471 388.275200
   2708   2707   2716     1   109.8000471 387.438400
   2708   2707   2709     1   107.5800459 329.699200
   2709   2707   2716     1   109.8000471 387.438400
   2710   2722   2723     1   109.5600471 388.275200
   2710   2722   2724     1   109.5600471 388.275200
   2711   2710   2722     1   109.8000471 387.438400
   2711   2710   2712     1   107.5800459 329.699200
   2712   2710   2722     1   109.8000471 387.438400
   2713   2719   2720     1   109.5600471 388.275200
   2713   2719   2721     1   109.5600471 388.275200
   2714   2713   2719     1   109.8000471 387.438400
   2714   2713   2715     1   107.5800459 329.699200
   2715   2713   2719     1   109.8000471 387.438400
   2717   2716   2725     1   109.7800468 425.094400
   2717   2716   2718     1   108.4600466 328.025600
   2718   2716   2725     1   109.7800468 425.094400
   2720   2719   5606     1   109.7800468 425.094400
   2720   2719   2721     1   108.4600466 328.025600
   2721   2719   5606     1   109.7800468 425.094400
   2723   2722   5637     1   109.7800468 425.094400
   2723   2722   2724     1   108.4600466 328.025600
   2724   2722   5637     1   109.7800468 425.094400
   2726   2727   2728     1   109.8800469 414.216000
   2726   2727   2729     1   109.8800469 414.216000
   2726   2730   2731     1   109.8800469 414.216000
   2726   2730   2732     1   109.8800469 414.216000
   2726   2733   2734     1   109.8800469 414.216000
   2726   2733   2735     1   109.8800469 414.216000
   2727   2739   2740     1   109.8000471 387.438400
   2727   2739   2741     1   109.8000471 387.438400
   2728   2727   2739     1   109.5600471 388.275200
   2728   2727   2729     1   108.4600466 328.025600
   2729   2727   2739     1   109.5600471 388.275200
   2730   2742   2743     1   109.8000471 387.438400
   2730   2742   2744     1   109.8000471 387.438400
   2731   2730   2742     1   109.5600471 388.275200
   2731   2730   2732     1   108.4600466 328.025600
   2732   2730   2742     1   109.5600471 388.275200
   2733   2736   2737     1   109.8000471 387.438400
   2733   2736   2738     1   109.8000471 387.438400
   2734   2733   2736     1   109.5600471 388.275200
   2734   2733   2735     1   108.4600466 328.025600
   2735   2733   2736     1   109.5600471 388.275200
   2736   2745   2746     1   109.5600471 388.275200
   2736   2745   2747     1   109.5600471 388.275200
   2737   2736   2745     1   109.8000471 387.438400
   2737   2736   2738     1   107.5800459 329.699200
   2738   2736   2745     1   109.8000471 387.438400
   2739   2751   2752     1   109.5600471 388.275200
   2739   2751   2753     1   109.5600471 388.275200
   2740   2739   2751     1   109.8000471 387.438400
   2740   2739   2741     1   107.5800459 329.699200
   2741   2739   2751     1   109.8000471 387.438400
   2742   2748   2749     1   109.5600471 388.275200
   2742   2748   2750     1   109.5600471 388.275200
   2743   2742   2748     1   109.8000471 387.438400
   2743   2742   2744     1   107.5800459 329.699200
   2744   2742   2748     1   109.8000471 387.438400
   2746   2745   2754     1   109.7800468 425.094400
   2746   2745   2747     1   108.4600466 328.025600
   2747   2745   2754     1   109.7800468 425.094400
   2749   2748   5668     1   109.7800468 425.094400
   2749   2748   2750     1   108.4600466 328.025600
   2750   2748   5668     1   109.7800468 425.094400
   2752   2751   5699     1   109.7800468 425.094400
   2752   2751   2753     1   108.4600466 328.025600
   2753   2751   5699     1   109.7800468 425.094400
   2755   2756   2757     1   109.8800469 414.216000
   2755   2756   2758     1   109.8800469 414.216000
   2755   2759   2760     1   109.8800469 414.216000
   2755   2759   2761     1   109.8800469 414.216000
   2755   2762   2763     1   109.8800469 414.216000
   2755   2762   2764     1   109.8800469 414.216000
   2756   2768   2769     1   109.8000471 387.438400
   2756   2768   2770     1   109.8000471 387.438400
   2757   2756   2768     1   109.5600471 388.275200
   2757   2756   2758     1   108.4600466 328.025600
   2758   2756   2768     1   109.5600471 388.275200
   2759   2771   2772     1   109.8000471 387.438400
   2759   2771   2773     1   109.8000471 387.438400
   2760   2759   2771     1   109.5600471 388.275200
   2760   2759   2761     1   108.4600466 328.025600
   2761   2759   2771     1   109.5600471 388.275200
   2762   2765   2766     1   109.8000471 387.438400
   2762   2765   2767     1   109.8000471 387.438400
   2763   2762   2765     1   109.5600471 388.275200
   2763   2762   2764     1   108.4600466 328.025600
   2764   2762   2765     1   109.5600471 388.275200
   2765   2774   2775     1   109.5600471 388.275200
   2765   2774   2776     1   109.5600471 388.275200
   2766   2765   2774     1   109.8000471 387.438400
   2766   2765   2767     1   107.5800459 329.699200
   2767   2765   2774     1   109.8000471 387.438400
   2768   2780   2781     1   109.5600471 388.275200
   2768   2780   2782     1   109.5600471 388.275200
   2769   2768   2780     1   109.8000471 387.438400
   2769   2768   2770     1   107.5800459 329.699200
   2770   2768   2780     1   109.8000471 387.438400
   2771   2777   2778     1   109.5600471 388.275200
   2771   2777   2779     1   109.5600471 388.275200
   2772   2771   2777     1   109.8000471 387.438400
   2772   2771   2773     1   107.5800459 329.699200
   2773   2771   2777     1   109.8000471 387.438400
   2775   2774   2783     1   109.7800468 425.094400
   2775   2774   2776     1   108.4600466 328.025600
   2776   2774   2783     1   109.7800468 425.094400
   2778   2777   5730     1   109.7800468 425.094400
   2778   2777   2779     1   108.4600466 328.025600
   2779   2777   5730     1   109.7800468 425.094400
   2781   2780   5761     1   109.7800468 425.094400
   2781   2780   2782     1   108.4600466 328.025600
   2782   2780   5761     1   109.7800468 425.094400
   2784   2785   2786     1   109.8800469 414.216000
   2784   2785   2787     1   109.8800469 414.216000
   2784   2788   2789     1   109.8800469 414.216000
   2784   2788   2790     1   109.8800469 414.216000
   2784   2791   2792     1   109.8800469 414.216000
   2784   2791   2793     1   109.8800469 414.216000
   2785   2797   2798     1   109.8000471 387.438400
   2785   2797   2799     1   109.8000471 387.438400
   2786   2785   2797     1   109.5600471 388.275200
   2786   2785   2787     1   108.4600466 328.025600
   2787   2785   2797     1   109.5600471 388.275200
   2788   2800   2801     1   109.8000471 387.438400
   2788   2800   2802     1   109.8000471 387.438400
   2789   2788   2800     1   109.5600471 388.275200
   2789   2788   2790     1   108.4600466 328.025600
   2790   2788   2800     1   109.5600471 388.275200
   2791   2794   2795     1   109.8000471 387.438400
   2791   2794   2796     1   109.8000471 387.438400
   2792   2791   2794     1   109.5600471 388.275200
   2792   2791   2793     1   108.4600466 328.025600
   2793   2791   2794     1   109.5600471 388.275200
   2794   2803   2804     1   109.5600471 388.275200
   2794   2803   2805     1   109.5600471 388.275200
   2795   2794   2803     1   109.8000471 387.438400
   2795   2794   2796     1   107.5800459 329.699200
   2796   2794   2803     1   109.8000471 387.438400
   2797   2809   2810     1   109.5600471 388.275200
   2797   2809   2811     1   109.5600471 388.275200
   2798   2797   2809     1   109.8000471 387.438400
   2798   2797   2799     1   107.5800459 329.699200
   2799   2797   2809     1   109.8000471 387.438400
   2800   2806   2807     1   109.5600471 388.275200
   2800   2806   2808     1   109.5600471 388.275200
   2801   2800   2806     1   109.8000471 387.438400
   2801   2800   2802     1   107.5800459 329.699200
   2802   2800   2806     1   109.8000471 387.438400
   2804   2803   2812     1   109.7800468 425.094400
   2804   2803   2805     1   108.4600466 328.025600
   2805   2803   2812     1   109.7800468 425.094400
   2807   2806   5792     1   109.7800468 425.094400
   2807   2806   2808     1   108.4600466 328.025600
   2808   2806   5792     1   109.7800468 425.094400
   2810   2809   5823     1   109.7800468 425.094400
   2810   2809   2811     1   108.4600466 328.025600
   2811   2809   5823     1   109.7800468 425.094400
   2813   2814   2815     1   109.8800469 414.216000
   2813   2814   2816     1   109.8800469 414.216000
   2813   2817   2818     1   109.8800469 414.216000
   2813   2817   2819     1   109.8800469 414.216000
   2813   2820   2821     1   109.8800469 414.216000
   2813   2820   2822     1   109.8800469 414.216000
   2814   2826   2827     1   109.8000471 387.438400
   2814   2826   2828     1   109.8000471 387.438400
   2815   2814   2826     1   109.5600471 388.275200
   2815   2814   2816     1   108.4600466 328.025600
   2816   2814   2826     1   109.5600471 388.275200
   2817   2829   2830     1   109.8000471 387.438400
   2817   2829   2831     1   109.8000471 387.438400
   2818   2817   2829     1   109.5600471 388.275200
   2818   2817   2819     1   108.4600466 328.025600
   2819   2817   2829     1   109.5600471 388.275200
   2820   2823   2824     1   109.8000471 387.438400
   2820   2823   2825     1   109.8000471 387.438400
   2821   2820   2823     1   109.5600471 388.275200
   2821   2820   2822     1   108.4600466 328.025600
   2822   2820   2823     1   109.5600471 388.275200
   2823   2832   2833     1   109.5600471 388.275200
   2823   2832   2834     1   109.5600471 388.275200
   2824   2823   2832     1   109.8000471 387.438400
   2824   2823   2825     1   107.5800459 329.699200
   2825   2823   2832     1   109.8000471 387.438400
   2826   2838   2839     1   109.5600471 388.275200
   2826   2838   2840     1   109.5600471 388.275200
   2827   2826   2838     1   109.8000471 387.438400
   2827   2826   2828     1   107.5800459 329.699200
   2828   2826   2838     1   109.8000471 387.438400
   2829   2835   2836     1   109.5600471 388.275200
   2829   2835   2837     1   109.5600471 388.275200
   2830   2829   2835     1   109.8000471 387.438400
   2830   2829   2831     1   107.5800459 329.699200
   2831   2829   2835     1   109.8000471 387.438400
   2833   2832   2841     1   109.7800468 425.094400
   2833   2832   2834     1   108.4600466 328.025600
   2834   2832   2841     1   109.7800468 425.094400
   2836   2835   5854     1   109.7800468 425.094400
   2836   2835   2837     1   108.4600466 328.025600
   2837   2835   5854     1   109.7800468 425.094400
   2839   2838   5885     1   109.7800468 425.094400
   2839   2838   2840     1   108.4600466 328.025600
   2840   2838   5885     1   109.7800468 425.094400
   2842   2843   2844     1   109.8800469 414.216000
   2842   2843   2845     1   109.8800469 414.216000
   2842   2846   2847     1   109.8800469 414.216000
   2842   2846   2848     1   109.8800469 414.216000
   2842   2849   2850     1   109.8800469 414.216000
   2842   2849   2851     1   109.8800469 414.216000
   2843   2855   2856     1   109.8000471 387.438400
   2843   2855   2857     1   109.8000471 387.438400
   2844   2843   2855     1   109.5600471 388.275200
   2844   2843   2845     1   108.4600466 328.025600
   2845   2843   2855     1   109.5600471 388.275200
   2846   2858   2859     1   109.8000471 387.438400
   2846   2858   2860     1   109.8000471 387.438400
   2847   2846   2858     1   109.5600471 388.275200
   2847   2846   2848     1   108.4600466 328.025600
   2848   2846   2858     1   109.5600471 388.275200
   2849   2852   2853     1   109.8000471 387.438400
   2849   2852   2854     1   109.8000471 387.438400
   2850   2849   2852     1   109.5600471 388.275200
   2850   2849   2851     1   108.4600466 328.025600
   2851   2849   2852     1   109.5600471 388.275200
   2852   2861   2862     1   109.5600471 388.275200
   2852   2861   2863     1   109.5600471 388.275200
   2853   2852   2861     1   109.8000471 387.438400
   2853   2852   2854     1   107.5800459 329.699200
   2854   2852   2861     1   109.8000471 387.438400
   2855   2867   2868     1   109.5600471 388.275200
   2855   2867   2869     1   109.5600471 388.275200
   2856   2855   2867     1   109.8000471 387.438400
   2856   2855   2857     1   107.5800459 329.699200
   2857   2855   2867     1   109.8000471 387.438400
   2858   2864   2865     1   109.5600471 388.275200
   2858   2864   2866     1   109.5600471 388.275200
   2859   2858   2864     1   109.8000471 387.438400
   2859   2858   2860     1   107.5800459 329.699200
   2860   2858   2864     1   109.8000471 387.438400
   2862   2861   2870     1   109.7800468 425.094400
   2862   2861   2863     1   108.4600466 328.025600
   2863   2861   2870     1   109.7800468 425.094400
   2865   2864   5916     1   109.7800468 425.094400
   2865   2864   2866     1   108.4600466 328.025600
   2866   2864   5916     1   109.7800468 425.094400
   2868   2867   5947     1   109.7800468 425.094400
   2868   2867   2869     1   108.4600466 328.025600
   2869   2867   5947     1   109.7800468 425.094400
   2871   2872   2873     1   109.8800469 414.216000
   2871   2872   2874     1   109.8800469 414.216000
   2871   2875   2876     1   109.8800469 414.216000
   2871   2875   2877     1   109.8800469 414.216000
   2871   2878   2879     1   109.8800469 414.216000
   2871   2878   2880     1   109.8800469 414.216000
   2872   2884   2885     1   109.8000471 387.438400
   2872   2884   2886     1   109.8000471 387.438400
   2873   2872   2884     1   109.5600471 388.275200
   2873   2872   2874     1   108.4600466 328.025600
   2874   2872   2884     1   109.5600471 388.275200
   2875   2887   2888     1   109.8000471 387.438400
   2875   2887   2889     1   109.8000471 387.438400
   2876   2875   2887     1   109.5600471 388.275200
   2876   2875   2877     1   108.4600466 328.025600
   2877   2875   2887     1   109.5600471 388.275200
   2878   2881   2882     1   109.8000471 387.438400
   2878   2881   2883     1   109.8000471 387.438400
   2879   2878   2881     1   109.5600471 388.275200
   2879   2878   2880     1   108.4600466 328.025600
   2880   2878   2881     1   109.5600471 388.275200
   2881   2890   2891     1   109.5600471 388.275200
   2881   2890   2892     1   109.5600471 388.275200
   2882   2881   2890     1   109.8000471 387.438400
   2882   2881   2883     1   107.5800459 329.699200
   2883   2881   2890     1   109.8000471 387.438400
   2884   2896   2897     1   109.5600471 388.275200
   2884   2896   2898     1   109.5600471 388.275200
   2885   2884   2896     1   109.8000471 387.438400
   2885   2884   2886     1   107.5800459 329.699200
   2886   2884   2896     1   109.8000471 387.438400
   2887   2893   2894     1   109.5600471 388.275200
   2887   2893   2895     1   109.5600471 388.275200
   2888   2887   2893     1   109.8000471 387.438400
   2888   2887   2889     1   107.5800459 329.699200
   2889   2887   2893     1   109.8000471 387.438400
   2891   2890   2899     1   109.7800468 425.094400
   2891   2890   2892     1   108.4600466 328.025600
   2892   2890   2899     1   109.7800468 425.094400
   2894   2893   5978     1   109.7800468 425.094400
   2894   2893   2895     1   108.4600466 328.025600
   2895   2893   5978     1   109.7800468 425.094400
   2897   2896   6009     1   109.7800468 425.094400
   2897   2896   2898     1   108.4600466 328.025600
   2898   2896   6009     1   109.7800468 425.094400
   2900   2901   2902     1   109.8800469 414.216000
   2900   2901   2903     1   109.8800469 414.216000
   2900   2904   2905     1   109.8800469 414.216000
   2900   2904   2906     1   109.8800469 414.216000
   2900   2907   2908     1   109.8800469 414.216000
   2900   2907   2909     1   109.8800469 414.216000
   2901   2913   2914     1   109.8000471 387.438400
   2901   2913   2915     1   109.8000471 387.438400
   2902   2901   2913     1   109.5600471 388.275200
   2902   2901   2903     1   108.4600466 328.025600
   2903   2901   2913     1   109.5600471 388.275200
   2904   2916   2917     1   109.8000471 387.438400
   2904   2916   2918     1   109.8000471 387.438400
   2905   2904   2916     1   109.5600471 388.275200
   2905   2904   2906     1   108.4600466 328.025600
   2906   2904   2916     1   109.5600471 388.275200
   2907   2910   2911     1   109.8000471 387.438400
   2907   2910   2912     1   109.8000471 387.438400
   2908   2907   2910     1   109.5600471 388.275200
   2908   2907   2909     1   108.4600466 328.025600
   2909   2907   2910     1   109.5600471 388.275200
   2910   2919   2920     1   109.5600471 388.275200
   2910   2919   2921     1   109.5600471 388.275200
   2911   2910   2919     1   109.8000471 387.438400
   2911   2910   2912     1   107.5800459 329.699200
   2912   2910   2919     1   109.8000471 387.438400
   2913   2925   2926     1   109.5600471 388.275200
   2913   2925   2927     1   109.5600471 388.275200
   2914   2913   2925     1   109.8000471 387.438400
   2914   2913   2915     1   107.5800459 329.699200
   2915   2913   2925     1   109.8000471 387.438400
   2916   2922   2923     1   109.5600471 388.275200
   2916   2922   2924     1   109.5600471 388.275200
   2917   2916   2922     1   109.8000471 387.438400
   2917   2916   2918     1   107.5800459 329.699200
   2918   2916   2922     1   109.8000471 387.438400
   2920   2919   2928     1   109.7800468 425.094400
   2920   2919   2921     1   108.4600466 328.025600
   2921   2919   2928     1   109.7800468 425.094400
   2923   2922   6040     1   109.7800468 425.094400
   2923   2922   2924     1   108.4600466 328.025600
   2924   2922   6040     1   109.7800468 425.094400
   2926   2925   6071     1   109.7800468 425.094400
   2926   2925   2927     1   108.4600466 328.025600
   2927   2925   6071     1   109.7800468 425.094400
   2929   2930   2931     1   109.8800469 414.216000
   2929   2930   2932     1   109.8800469 414.216000
   2929   2933   2934     1   109.8800469 414.216000
   2929   2933   2935     1   109.8800469 414.216000
   2929   2936   2937     1   109.8800469 414.216000
   2929   2936   2938     1   109.8800469 414.216000
   2930   2942   2943     1   109.8000471 387.438400
   2930   2942   2944     1   109.8000471 387.438400
   2931   2930   2942     1   109.5600471 388.275200
   2931   2930   2932     1   108.4600466 328.025600
   2932   2930   2942     1   109.5600471 388.275200
   2933   2945   2946     1   109.8000471 387.438400
   2933   2945   2947     1   109.8000471 387.438400
   2934   2933   2945     1   109.5600471 388.275200
   2934   2933   2935     1   108.4600466 328.025600
   2935   2933   2945     1   109.5600471 388.275200
   2936   2939   2940     1   109.8000471 387.438400
   2936   2939   2941     1   109.8000471 387.438400
   2937   2936   2939     1   109.5600471 388.275200
   2937   2936   2938     1   108.4600466 328.025600
   2938   2936   2939     1   109.5600471 388.275200
   2939   2948   2949     1   109.5600471 388.275200
   2939   2948   2950     1   109.5600471 388.275200
   2940   2939   2948     1   109.8000471 387.438400
   2940   2939   2941     1   107.5800459 329.699200
   2941   2939   2948     1   109.8000471 387.438400
   2942   2954   2955     1   109.5600471 388.275200
   2942   2954   2956     1   109.5600471 388.275200
   2943   2942   2954     1   109.8000471 387.438400
   2943   2942   2944     1   107.5800459 329.699200
   2944   2942   2954     1   109.8000471 387.438400
   2945   2951   2952     1   109.5600471 388.275200
   2945   2951   2953     1   109.5600471 388.275200
   2946   2945   2951     1   109.8000471 387.438400
   2946   2945   2947     1   107.5800459 329.699200
   2947   2945   2951     1   109.8000471 387.438400
   2949   2948   2957     1   109.7800468 425.094400
   2949   2948   2950     1   108.4600466 328.025600
   2950   2948   2957     1   109.7800468 425.094400
   2952   2951   6102     1   109.7800468 425.094400
   2952   2951   2953     1   108.4600466 328.025600
   2953   2951   6102     1   109.7800468 425.094400
   2955   2954   6133     1   109.7800468 425.094400
   2955   2954   2956     1   108.4600466 328.025600
   2956   2954   6133     1   109.7800468 425.094400
   2958   2959   2960     1   109.8800469 414.216000
   2958   2959   2961     1   109.8800469 414.216000
   2958   2962   2963     1   109.8800469 414.216000
   2958   2962   2964     1   109.8800469 414.216000
   2958   2965   2966     1   109.8800469 414.216000
   2958   2965   2967     1   109.8800469 414.216000
   2959   2971   2972     1   109.8000471 387.438400
   2959   2971   2973     1   109.8000471 387.438400
   2960   2959   2971     1   109.5600471 388.275200
   2960   2959   2961     1   108.4600466 328.025600
   2961   2959   2971     1   109.5600471 388.275200
   2962   2974   2975     1   109.8000471 387.438400
   2962   2974   2976     1   109.8000471 387.438400
   2963   2962   2974     1   109.5600471 388.275200
   2963   2962   2964     1   108.4600466 328.025600
   2964   2962   2974     1   109.5600471 388.275200
   2965   2968   2969     1   109.8000471 387.438400
   2965   2968   2970     1   109.8000471 387.438400
   2966   2965   2968     1   109.5600471 388.275200
   2966   2965   2967     1   108.4600466 328.025600
   2967   2965   2968     1   109.5600471 388.275200
   2968   2977   2978     1   109.5600471 388.275200
   2968   2977   2979     1   109.5600471 388.275200
   2969   2968   2977     1   109.8000471 387.438400
   2969   2968   2970     1   107.5800459 329.699200
   2970   2968   2977     1   109.8000471 387.438400
   2971   2983   2984     1   109.5600471 388.275200
   2971   2983   2985     1   109.5600471 388.275200
   2972   2971   2983     1   109.8000471 387.438400
   2972   2971   2973     1   107.5800459 329.699200
   2973   2971   2983     1   109.8000471 387.438400
   2974   2980   2981     1   109.5600471 388.275200
   2974   2980   2982     1   109.5600471 388.275200
   2975   2974   2980     1   109.8000471 387.438400
   2975   2974   2976     1   107.5800459 329.699200
   2976   2974   2980     1   109.8000471 387.438400
   2978   2977   2986     1   109.7800468 425.094400
   2978   2977   2979     1   108.4600466 328.025600
   2979   2977   2986     1   109.7800468 425.094400
   2981   2980   6164     1   109.7800468 425.094400
   2981   2980   2982     1   108.4600466 328.025600
   2982   2980   6164     1   109.7800468 425.094400
   2984   2983   6195     1   109.7800468 425.094400
   2984   2983   2985     1   108.4600466 328.025600
   2985   2983   6195     1   109.7800468 425.094400
   2987   2988   2989     1   109.8800469 414.216000
   2987   2988   2990     1   109.8800469 414.216000
   2987   2991   2992     1   109.8800469 414.216000
   2987   2991   2993     1   109.8800469 414.216000
   2987   2994   2995     1   109.8800469 414.216000
   2987   2994   2996     1   109.8800469 414.216000
   2988   3000   3001     1   109.8000471 387.438400
   2988   3000   3002     1   109.8000471 387.438400
   2989   2988   3000     1   109.5600471 388.275200
   2989   2988   2990     1   108.4600466 328.025600
   2990   2988   3000     1   109.5600471 388.275200
   2991   3003   3004     1   109.8000471 387.438400
   2991   3003   3005     1   109.8000471 387.438400
   2992   2991   3003     1   109.5600471 388.275200
   2992   2991   2993     1   108.4600466 328.025600
   2993   2991   3003     1   109.5600471 388.275200
   2994   2997   2998     1   109.8000471 387.438400
   2994   2997   2999     1   109.8000471 387.438400
   2995   2994   2997     1   109.5600471 388.275200
   2995   2994   2996     1   108.4600466 328.025600
   2996   2994   2997     1   109.5600471 388.275200
   2997   3006   3007     1   109.5600471 388.275200
   2997   3006   3008     1   109.5600471 388.275200
   2998   2997   3006     1   109.8000471 387.438400
   2998   2997   2999     1   107.5800459 329.699200
   2999   2997   3006     1   109.8000471 387.438400
   3000   3012   3013     1   109.5600471 388.275200
   3000   3012   3014     1   109.5600471 388.275200
   3001   3000   3012     1   109.8000471 387.438400
   3001   3000   3002     1   107.5800459 329.699200
   3002   3000   3012     1   109.8000471 387.438400
   3003   3009   3010     1   109.5600471 388.275200
   3003   3009   3011     1   109.5600471 388.275200
   3004   3003   3009     1   109.8000471 387.438400
   3004   3003   3005     1   107.5800459 329.699200
   3005   3003   3009     1   109.8000471 387.438400
   3007   3006   3015     1   109.7800468 425.094400
   3007   3006   3008     1   108.4600466 328.025600
   3008   3006   3015     1   109.7800468 425.094400
   3010   3009   6226     1   109.7800468 425.094400
   3010   3009   3011     1   108.4600466 328.025600
   3011   3009   6226     1   109.7800468 425.094400
   3013   3012   6257     1   109.7800468 425.094400
   3013   3012   3014     1   108.4600466 328.025600
   3014   3012   6257     1   109.7800468 425.094400
   3016   3017   3018     1   109.8800469 414.216000
   3016   3017   3019     1   109.8800469 414.216000
   3016   3020   3021     1   109.8800469 414.216000
   3016   3020   3022     1   109.8800469 414.216000
   3016   3023   3024     1   109.8800469 414.216000
   3016   3023   3025     1   109.8800469 414.216000
   3017   3029   3030     1   109.8000471 387.438400
   3017   3029   3031     1   109.8000471 387.438400
   3018   3017   3029     1   109.5600471 388.275200
   3018   3017   3019     1   108.4600466 328.025600
   3019   3017   3029     1   109.5600471 388.275200
   3020   3032   3033     1   109.8000471 387.438400
   3020   3032   3034     1   109.8000471 387.438400
   3021   3020   3032     1   109.5600471 388.275200
   3021   3020   3022     1   108.4600466 328.025600
   3022   3020   3032     1   109.5600471 388.275200
   3023   3026   3027     1   109.8000471 387.438400
   3023   3026   3028     1   109.8000471 387.438400
   3024   3023   3026     1   109.5600471 388.275200
   3024   3023   3025     1   108.4600466 328.025600
   3025   3023   3026     1   109.5600471 388.275200
   3026   3035   3036     1   109.5600471 388.275200
   3026   3035   3037     1   109.5600471 388.275200
   3027   3026   3035     1   109.8000471 387.438400
   3027   3026   3028     1   107.5800459 329.699200
   3028   3026   3035     1   109.8000471 387.438400
   3029   3041   3042     1   109.5600471 388.275200
   3029   3041   3043     1   109.5600471 388.275200
   3030   3029   3041     1   109.8000471 387.438400
   3030   3029   3031     1   107.5800459 329.699200
   3031   3029   3041     1   109.8000471 387.438400
   3032   3038   3039     1   109.5600471 388.275200
   3032   3038   3040     1   109.5600471 388.275200
   3033   3032   3038     1   109.8000471 387.438400
   3033   3032   3034     1   107.5800459 329.699200
   3034   3032   3038     1   109.8000471 387.438400
   3036   3035   3044     1   109.7800468 425.094400
   3036   3035   3037     1   108.4600466 328.025600
   3037   3035   3044     1   109.7800468 425.094400
   3039   3038   6288     1   109.7800468 425.094400
   3039   3038   3040     1   108.4600466 328.025600
   3040   3038   6288     1   109.7800468 425.094400
   3042   3041   6319     1   109.7800468 425.094400
   3042   3041   3043     1   108.4600466 328.025600
   3043   3041   6319     1   109.7800468 425.094400
   3045   3046   3047     1   109.8800469 414.216000
   3045   3046   3048     1   109.8800469 414.216000
   3045   3049   3050     1   109.8800469 414.216000
   3045   3049   3051     1   109.8800469 414.216000
   3045   3052   3053     1   109.8800469 414.216000
   3045   3052   3054     1   109.8800469 414.216000
   3046   3058   3059     1   109.8000471 387.438400
   3046   3058   3060     1   109.8000471 387.438400
   3047   3046   3058     1   109.5600471 388.275200
   3047   3046   3048     1   108.4600466 328.025600
   3048   3046   3058     1   109.5600471 388.275200
   3049   3061   3062     1   109.8000471 387.438400
   3049   3061   3063     1   109.8000471 387.438400
   3050   3049   3061     1   109.5600471 388.275200
   3050   3049   3051     1   108.4600466 328.025600
   3051   3049   3061     1   109.5600471 388.275200
   3052   3055   3056     1   109.8000471 387.438400
   3052   3055   3057     1   109.8000471 387.438400
   3053   3052   3055     1   109.5600471 388.275200
   3053   3052   3054     1   108.4600466 328.025600
   3054   3052   3055     1   109.5600471 388.275200
   3055   3064   3065     1   109.5600471 388.275200
   3055   3064   3066     1   109.5600471 388.275200
   3056   3055   3064     1   109.8000471 387.438400
   3056   3055   3057     1   107.5800459 329.699200
   3057   3055   3064     1   109.8000471 387.438400
   3058   3070   3071     1   109.5600471 388.275200
   3058   3070   3072     1   109.5600471 388.275200
   3059   3058   3070     1   109.8000471 387.438400
   3059   3058   3060     1   107.5800459 329.699200
   3060   3058   3070     1   109.8000471 387.438400
   3061   3067   3068     1   109.5600471 388.275200
   3061   3067   3069     1   109.5600471 388.275200
   3062   3061   3067     1   109.8000471 387.438400
   3062   3061   3063     1   107.5800459 329.699200
   3063   3061   3067     1   109.8000471 387.438400
   3065   3064   3073     1   109.7800468 425.094400
   3065   3064   3066     1   108.4600466 328.025600
   3066   3064   3073     1   109.7800468 425.094400
   3068   3067   6350     1   109.7800468 425.094400
   3068   3067   3069     1   108.4600466 328.025600
   3069   3067   6350     1   109.7800468 425.094400
   3071   3070   6381     1   109.7800468 425.094400
   3071   3070   3072     1   108.4600466 328.025600
   3072   3070   6381     1   109.7800468 425.094400
   3074   3075   3076     1   109.8800469 414.216000
   3074   3075   3077     1   109.8800469 414.216000
   3074   3078   3079     1   109.8800469 414.216000
   3074   3078   3080     1   109.8800469 414.216000
   3074   3081   3082     1   109.8800469 414.216000
   3074   3081   3083     1   109.8800469 414.216000
   3075   3087   3088     1   109.8000471 387.438400
   3075   3087   3089     1   109.8000471 387.438400
   3076   3075   3087     1   109.5600471 388.275200
   3076   3075   3077     1   108.4600466 328.025600
   3077   3075   3087     1   109.5600471 388.275200
   3078   3090   3091     1   109.8000471 387.438400
   3078   3090   3092     1   109.8000471 387.438400
   3079   3078   3090     1   109.5600471 388.275200
   3079   3078   3080     1   108.4600466 328.025600
   3080   3078   3090     1   109.5600471 388.275200
   3081   3084   3085     1   109.8000471 387.438400
   3081   3084   3086     1   109.8000471 387.438400
   3082   3081   3084     1   109.5600471 388.275200
   3082   3081   3083     1   108.4600466 328.025600
   3083   3081   3084     1   109.5600471 388.275200
   3084   3093   3094     1   109.5600471 388.275200
   3084   3093   3095     1   109.5600471 388.275200
   3085   3084   3093     1   109.8000471 387.438400
   3085   3084   3086     1   107.5800459 329.699200
   3086   3084   3093     1   109.8000471 387.438400
   3087   3099   3100     1   109.5600471 388.275200
   3087   3099   3101     1   109.5600471 388.275200
   3088   3087   3099     1   109.8000471 387.438400
   3088   3087   3089     1   107.5800459 329.699200
   3089   3087   3099     1   109.8000471 387.438400
   3090   3096   3097     1   109.5600471 388.275200
   3090   3096   3098     1   109.5600471 388.275200
   3091   3090   3096     1   109.8000471 387.438400
   3091   3090   3092     1   107.5800459 329.699200
   3092   3090   3096     1   109.8000471 387.438400
   3094   3093   3102     1   109.7800468 425.094400
   3094   3093   3095     1   108.4600466 328.025600
   3095   3093   3102     1   109.7800468 425.094400
   3097   3096   6412     1   109.7800468 425.094400
   3097   3096   3098     1   108.4600466 328.025600
   3098   3096   6412     1   109.7800468 425.094400
   3100   3099   6443     1   109.7800468 425.094400
   3100   3099   3101     1   108.4600466 328.025600
   3101   3099   6443     1   109.7800468 425.094400
   3103   3104   3105     1   109.8800469 414.216000
   3103   3104   3106     1   109.8800469 414.216000
   3103   3107   3108     1   109.8800469 414.216000
   3103   3107   3109     1   109.8800469 414.216000
   3103   3110   3111     1   109.8800469 414.216000
   3103   3110   3112     1   109.8800469 414.216000
   3104   3116   3117     1   109.8000471 387.438400
   3104   3116   3118     1   109.8000471 387.438400
   3105   3104   3116     1   109.5600471 388.275200
   3105   3104   3106     1   108.4600466 328.025600
   3106   3104   3116     1   109.5600471 388.275200
   3107   3119   3120     1   109.8000471 387.438400
   3107   3119   3121     1   109.8000471 387.438400
   3108   3107   3119     1   109.5600471 388.275200
   3108   3107   3109     1   108.4600466 328.025600
   3109   3107   3119     1   109.5600471 388.275200
   3110   3113   3114     1   109.8000471 387.438400
   3110   3113   3115     1   109.8000471 387.438400
   3111   3110   3113     1   109.5600471 388.275200
   3111   3110   3112     1   108.4600466 328.025600
   3112   3110   3113     1   109.5600471 388.275200
   3113   3122   3123     1   109.5600471 388.275200
   3113   3122   3124     1   109.5600471 388.275200
   3114   3113   3122     1   109.8000471 387.438400
   3114   3113   3115     1   107.5800459 329.699200
   3115   3113   3122     1   109.8000471 387.438400
   3116   3128   3129     1   109.5600471 388.275200
   3116   3128   3130     1   109.5600471 388.275200
   3117   3116   3128     1   109.8000471 387.438400
   3117   3116   3118     1   107.5800459 329.699200
   3118   3116   3128     1   109.8000471 387.438400
   3119   3125   3126     1   109.5600471 388.275200
   3119   3125   3127     1   109.5600471 388.275200
   3120   3119   3125     1   109.8000471 387.438400
   3120   3119   3121     1   107.5800459 329.699200
   3121   3119   3125     1   109.8000471 387.438400
   3123   3122   3131     1   109.7800468 425.094400
   3123   3122   3124     1   108.4600466 328.025600
   3124   3122   3131     1   109.7800468 425.094400
   3126   3125   6474     1   109.7800468 425.094400
   3126   3125   3127     1   108.4600466 328.025600
   3127   3125   6474     1   109.7800468 425.094400
   3129   3128   6505     1   109.7800468 425.094400
   3129   3128   3130     1   108.4600466 328.025600
   3130   3128   6505     1   109.7800468 425.094400
   3132   3133   3134     1   109.8800469 414.216000
   3132   3133   3135     1   109.8800469 414.216000
   3132   3136   3137     1   109.8800469 414.216000
   3132   3136   3138     1   109.8800469 414.216000
   3132   3139   3140     1   109.8800469 414.216000
   3132   3139   3141     1   109.8800469 414.216000
   3133   3145   3146     1   109.8000471 387.438400
   3133   3145   3147     1   109.8000471 387.438400
   3134   3133   3145     1   109.5600471 388.275200
   3134   3133   3135     1   108.4600466 328.025600
   3135   3133   3145     1   109.5600471 388.275200
   3136   3148   3149     1   109.8000471 387.438400
   3136   3148   3150     1   109.8000471 387.438400
   3137   3136   3148     1   109.5600471 388.275200
   3137   3136   3138     1   108.4600466 328.025600
   3138   3136   3148     1   109.5600471 388.275200
   3139   3142   3143     1   109.8000471 387.438400
   3139   3142   3144     1   109.8000471 387.438400
   3140   3139   3142     1   109.5600471 388.275200
   3140   3139   3141     1   108.4600466 328.025600
   3141   3139   3142     1   109.5600471 388.275200
   3142   3151   3152     1   109.5600471 388.275200
   3142   3151   3153     1   109.5600471 388.275200
   3143   3142   3151     1   109.8000471 387.438400
   3143   3142   3144     1   107.5800459 329.699200
   3144   3142   3151     1   109.8000471 387.438400
   3145   3157   3158     1   109.5600471 388.275200
   3145   3157   3159     1   109.5600471 388.275200
   3146   3145   3157     1   109.8000471 387.438400
   3146   3145   3147     1   107.5800459 329.699200
   3147   3145   3157     1   109.8000471 387.438400
   3148   3154   3155     1   109.5600471 388.275200
   3148   3154   3156     1   109.5600471 388.275200
   3149   3148   3154     1   109.8000471 387.438400
   3149   3148   3150     1   107.5800459 329.699200
   3150   3148   3154     1   109.8000471 387.438400
   3152   3151   3160     1   109.7800468 425.094400
   3152   3151   3153     1   108.4600466 328.025600
   3153   3151   3160     1   109.7800468 425.094400
   3155   3154   6536     1   109.7800468 425.094400
   3155   3154   3156     1   108.4600466 328.025600
   3156   3154   6536     1   109.7800468 425.094400
   3158   3157   6567     1   109.7800468 425.094400
   3158   3157   3159     1   108.4600466 328.025600
   3159   3157   6567     1   109.7800468 425.094400
   3161   3162   3163     1   109.8800469 414.216000
   3161   3162   3164     1   109.8800469 414.216000
   3161   3165   3166     1   109.8800469 414.216000
   3161   3165   3167     1   109.8800469 414.216000
   3161   3168   3169     1   109.8800469 414.216000
   3161   3168   3170     1   109.8800469 414.216000
   3162   3174   3175     1   109.8000471 387.438400
   3162   3174   3176     1   109.8000471 387.438400
   3163   3162   3174     1   109.5600471 388.275200
   3163   3162   3164     1   108.4600466 328.025600
   3164   3162   3174     1   109.5600471 388.275200
   3165   3177   3178     1   109.8000471 387.438400
   3165   3177   3179     1   109.8000471 387.438400
   3166   3165   3177     1   109.5600471 388.275200
   3166   3165   3167     1   108.4600466 328.025600
   3167   3165   3177     1   109.5600471 388.275200
   3168   3171   3172     1   109.8000471 387.438400
   3168   3171   3173     1   109.8000471 387.438400
   3169   3168   3171     1   109.5600471 388.275200
   3169   3168   3170     1   108.4600466 328.025600
   3170   3168   3171     1   109.5600471 388.275200
   3171   3180   3181     1   109.5600471 388.275200
   3171   3180   3182     1   109.5600471 388.275200
   3172   3171   3180     1   109.8000471 387.438400
   3172   3171   3173     1   107.5800459 329.699200
   3173   3171   3180     1   109.8000471 387.438400
   3174   3186   3187     1   109.5600471 388.275200
   3174   3186   3188     1   109.5600471 388.275200
   3175   3174   3186     1   109.8000471 387.438400
   3175   3174   3176     1   107.5800459 329.699200
   3176   3174   3186     1   109.8000471 387.438400
   3177   3183   3184     1   109.5600471 388.275200
   3177   3183   3185     1   109.5600471 388.275200
   3178   3177   3183     1   109.8000471 387.438400
   3178   3177   3179     1   107.5800459 329.699200
   3179   3177   3183     1   109.8000471 387.438400
   3181   3180   3189     1   109.7800468 425.094400
   3181   3180   3182     1   108.4600466 328.025600
   3182   3180   3189     1   109.7800468 425.094400
   3184   3183   6598     1   109.7800468 425.094400
   3184   3183   3185     1   108.4600466 328.025600
   3185   3183   6598     1   109.7800468 425.094400
   3187   3186   6629     1   109.7800468 425.094400
   3187   3186   3188     1   108.4600466 328.025600
   3188   3186   6629     1   109.7800468 425.094400
   3190   3191   3192     1   109.8800469 414.216000
   3190   3191   3193     1   109.8800469 414.216000
   3190   3194   3195     1   109.8800469 414.216000
   3190   3194   3196     1   109.8800469 414.216000
   3190   3197   3198     1   109.8800469 414.216000
   3190   3197   3199     1   109.8800469 414.216000
   3191   3203   3204     1   109.8000471 387.438400
   3191   3203   3205     1   109.8000471 387.438400
   3192   3191   3203     1   109.5600471 388.275200
   3192   3191   3193     1   108.4600466 328.025600
   3193   3191   3203     1   109.5600471 388.275200
   3194   3206   3207     1   109.8000471 387.438400
   3194   3206   3208     1   109.8000471 387.438400
   3195   3194   3206     1   109.5600471 388.275200
   3195   3194   3196     1   108.4600466 328.025600
   3196   3194   3206     1   109.5600471 388.275200
   3197   3200   3201     1   109.8000471 387.438400
   3197   3200   3202     1   109.8000471 387.438400
   3198   3197   3200     1   109.5600471 388.275200
   3198   3197   3199     1   108.4600466 328.025600
   3199   3197   3200     1   109.5600471 388.275200
   3200   3209   3210     1   109.5600471 388.275200
   3200   3209   3211     1   109.5600471 388.275200
   3201   3200   3209     1   109.8000471 387.438400
   3201   3200   3202     1   107.5800459 329.699200
   3202   3200   3209     1   109.8000471 387.438400
   3203   3215   3216     1   109.5600471 388.275200
   3203   3215   3217     1   109.5600471 388.275200
   3204   3203   3215     1   109.8000471 387.438400
   3204   3203   3205     1   107.5800459 329.699200
   3205   3203   3215     1   109.8000471 387.438400
   3206   3212   3213     1   109.5600471 388.275200
   3206   3212   3214     1   109.5600471 388.275200
   3207   3206   3212     1   109.8000471 387.438400
   3207   3206   3208     1   107.5800459 329.699200
   3208   3206   3212     1   109.8000471 387.438400
   3210   3209   3218     1   109.7800468 425.094400
   3210   3209   3211     1   108.4600466 328.025600
   3211   3209   3218     1   109.7800468 425.094400
   3213   3212   6660     1   109.7800468 425.094400
   3213   3212   3214     1   108.4600466 328.025600
   3214   3212   6660     1   109.7800468 425.094400
   3216   3215   6691     1   109.7800468 425.094400
   3216   3215   3217     1   108.4600466 328.025600
   3217   3215   6691     1   109.7800468 425.094400
   3219   3220   3221     1   109.8800469 414.216000
   3219   3220   3222     1   109.8800469 414.216000
   3219   3223   3224     1   109.8800469 414.216000
   3219   3223   3225     1   109.8800469 414.216000
   3219   3226   3227     1   109.8800469 414.216000
   3219   3226   3228     1   109.8800469 414.216000
   3220   3232   3233     1   109.8000471 387.438400
   3220   3232   3234     1   109.8000471 387.438400
   3221   3220   3232     1   109.5600471 388.275200
   3221   3220   3222     1   108.4600466 328.025600
   3222   3220   3232     1   109.5600471 388.275200
   3223   3235   3236     1   109.8000471 387.438400
   3223   3235   3237     1   109.8000471 387.438400
   3224   3223   3235     1   109.5600471 388.275200
   3224   3223   3225     1   108.4600466 328.025600
   3225   3223   3235     1   109.5600471 388.275200
   3226   3229   3230     1   109.8000471 387.438400
   3226   3229   3231     1   109.8000471 387.438400
   3227   3226   3229     1   109.5600471 388.275200
   3227   3226   3228     1   108.4600466 328.025600
   3228   3226   3229     1   109.5600471 388.275200
   3229   3238   3239     1   109.5600471 388.275200
   3229   3238   3240     1   109.5600471 388.275200
   3230   3229   3238     1   109.8000471 387.438400
   3230   3229   3231     1   107.5800459 329.699200
   3231   3229   3238     1   109.8000471 387.438400
   3232   3244   3245     1   109.5600471 388.275200
   3232   3244   3246     1   109.5600471 388.275200
   3233   3232   3244     1   109.8000471 387.438400
   3233   3232   3234     1   107.5800459 329.699200
   3234   3232   3244     1   109.8000471 387.438400
   3235   3241   3242     1   109.5600471 388.275200
   3235   3241   3243     1   109.5600471 388.275200
   3236   3235   3241     1   109.8000471 387.438400
   3236   3235   3237     1   107.5800459 329.699200
   3237   3235   3241     1   109.8000471 387.438400
   3239   3238   3247     1   109.7800468 425.094400
   3239   3238   3240     1   108.4600466 328.025600
   3240   3238   3247     1   109.7800468 425.094400
   3242   3241   6722     1   109.7800468 425.094400
   3242   3241   3243     1   108.4600466 328.025600
   3243   3241   6722     1   109.7800468 425.094400
   3245   3244   6753     1   109.7800468 425.094400
   3245   3244   3246     1   108.4600466 328.025600
   3246   3244   6753     1   109.7800468 425.094400
   3248   3249   3250     1   109.8800469 414.216000
   3248   3249   3251     1   109.8800469 414.216000
   3248   3252   3253     1   109.8800469 414.216000
   3248   3252   3254     1   109.8800469 414.216000
   3248   3255   3256     1   109.8800469 414.216000
   3248   3255   3257     1   109.8800469 414.216000
   3249   3261   3262     1   109.8000471 387.438400
   3249   3261   3263     1   109.8000471 387.438400
   3250   3249   3261     1   109.5600471 388.275200
   3250   3249   3251     1   108.4600466 328.025600
   3251   3249   3261     1   109.5600471 388.275200
   3252   3264   3265     1   109.8000471 387.438400
   3252   3264   3266     1   109.8000471 387.438400
   3253   3252   3264     1   109.5600471 388.275200
   3253   3252   3254     1   108.4600466 328.025600
   3254   3252   3264     1   109.5600471 388.275200
   3255   3258   3259     1   109.8000471 387.438400
   3255   3258   3260     1   109.8000471 387.438400
   3256   3255   3258     1   109.5600471 388.275200
   3256   3255   3257     1   108.4600466 328.025600
   3257   3255   3258     1   109.5600471 388.275200
   3258   3267   3268     1   109.5600471 388.275200
   3258   3267   3269     1   109.5600471 388.275200
   3259   3258   3267     1   109.8000471 387.438400
   3259   3258   3260     1   107.5800459 329.699200
   3260   3258   3267     1   109.8000471 387.438400
   3261   3273   3274     1   109.5600471 388.275200
   3261   3273   3275     1   109.5600471 388.275200
   3262   3261   3273     1   109.8000471 387.438400
   3262   3261   3263     1   107.5800459 329.699200
   3263   3261   3273     1   109.8000471 387.438400
   3264   3270   3271     1   109.5600471 388.275200
   3264   3270   3272     1   109.5600471 388.275200
   3265   3264   3270     1   109.8000471 387.438400
   3265   3264   3266     1   107.5800459 329.699200
   3266   3264   3270     1   109.8000471 387.438400
   3268   3267   3276     1   109.7800468 425.094400
   3268   3267   3269     1   108.4600466 328.025600
   3269   3267   3276     1   109.7800468 425.094400
   3271   3270   6784     1   109.7800468 425.094400
   3271   3270   3272     1   108.4600466 328.025600
   3272   3270   6784     1   109.7800468 425.094400
   3274   3273   6815     1   109.7800468 425.094400
   3274   3273   3275     1   108.4600466 328.025600
   3275   3273   6815     1   109.7800468 425.094400
   3277   3278   3279     1   109.8800469 414.216000
   3277   3278   3280     1   109.8800469 414.216000
   3277   3281   3282     1   109.8800469 414.216000
   3277   3281   3283     1   109.8800469 414.216000
   3277   3284   3285     1   109.8800469 414.216000
   3277   3284   3286     1   109.8800469 414.216000
   3278   3290   3291     1   109.8000471 387.438400
   3278   3290   3292     1   109.8000471 387.438400
   3279   3278   3290     1   109.5600471 388.275200
   3279   3278   3280     1   108.4600466 328.025600
   3280   3278   3290     1   109.5600471 388.275200
   3281   3293   3294     1   109.8000471 387.438400
   3281   3293   3295     1   109.8000471 387.438400
   3282   3281   3293     1   109.5600471 388.275200
   3282   3281   3283     1   108.4600466 328.025600
   3283   3281   3293     1   109.5600471 388.275200
   3284   3287   3288     1   109.8000471 387.438400
   3284   3287   3289     1   109.8000471 387.438400
   3285   3284   3287     1   109.5600471 388.275200
   3285   3284   3286     1   108.4600466 328.025600
   3286   3284   3287     1   109.5600471 388.275200
   3287   3296   3297     1   109.5600471 388.275200
   3287   3296   3298     1   109.5600471 388.275200
   3288   3287   3296     1   109.8000471 387.438400
   3288   3287   3289     1   107.5800459 329.699200
   3289   3287   3296     1   109.8000471 387.438400
   3290   3302   3303     1   109.5600471 388.275200
   3290   3302   3304     1   109.5600471 388.275200
   3291   3290   3302     1   109.8000471 387.438400
   3291   3290   3292     1   107.5800459 329.699200
   3292   3290   3302     1   109.8000471 387.438400
   3293   3299   3300     1   109.5600471 388.275200
   3293   3299   3301     1   109.5600471 388.275200
   3294   3293   3299     1   109.8000471 387.438400
   3294   3293   3295     1   107.5800459 329.699200
   3295   3293   3299     1   109.8000471 387.438400
   3297   3296   3305     1   109.7800468 425.094400
   3297   3296   3298     1   108.4600466 328.025600
   3298   3296   3305     1   109.7800468 425.094400
   3300   3299   6846     1   109.7800468 425.094400
   3300   3299   3301     1   108.4600466 328.025600
   3301   3299   6846     1   109.7800468 425.094400
   3303   3302   6877     1   109.7800468 425.094400
   3303   3302   3304     1   108.4600466 328.025600
   3304   3302   6877     1   109.7800468 425.094400
   3306   3307   3308     1   109.8800469 414.216000
   3306   3307   3309     1   109.8800469 414.216000
   3306   3310   3311     1   109.8800469 414.216000
   3306   3310   3312     1   109.8800469 414.216000
   3306   3313   3314     1   109.8800469 414.216000
   3306   3313   3315     1   109.8800469 414.216000
   3307   3319   3320     1   109.8000471 387.438400
   3307   3319   3321     1   109.8000471 387.438400
   3308   3307   3319     1   109.5600471 388.275200
   3308   3307   3309     1   108.4600466 328.025600
   3309   3307   3319     1   109.5600471 388.275200
   3310   3322   3323     1   109.8000471 387.438400
   3310   3322   3324     1   109.8000471 387.438400
   3311   3310   3322     1   109.5600471 388.275200
   3311   3310   3312     1   108.4600466 328.025600
   3312   3310   3322     1   109.5600471 388.275200
   3313   3316   3317     1   109.8000471 387.438400
   3313   3316   3318     1   109.8000471 387.438400
   3314   3313   3316     1   109.5600471 388.275200
   3314   3313   3315     1   108.4600466 328.025600
   3315   3313   3316     1   109.5600471 388.275200
   3316   3325   3326     1   109.5600471 388.275200
   3316   3325   3327     1   109.5600471 388.275200
   3317   3316   3325     1   109.8000471 387.438400
   3317   3316   3318     1   107.5800459 329.699200
   3318   3316   3325     1   109.8000471 387.438400
   3319   3331   3332     1   109.5600471 388.275200
   3319   3331   3333     1   109.5600471 388.275200
   3320   3319   3331     1   109.8000471 387.438400
   3320   3319   3321     1   107.5800459 329.699200
   3321   3319   3331     1   109.8000471 387.438400
   3322   3328   3329     1   109.5600471 388.275200
   3322   3328   3330     1   109.5600471 388.275200
   3323   3322   3328     1   109.8000471 387.438400
   3323   3322   3324     1   107.5800459 329.699200
   3324   3322   3328     1   109.8000471 387.438400
   3326   3325   3334     1   109.7800468 425.094400
   3326   3325   3327     1   108.4600466 328.025600
   3327   3325   3334     1   109.7800468 425.094400
   3329   3328   6908     1   109.7800468 425.094400
   3329   3328   3330     1   108.4600466 328.025600
   3330   3328   6908     1   109.7800468 425.094400
   3332   3331   6939     1   109.7800468 425.094400
   3332   3331   3333     1   108.4600466 328.025600
   3333   3331   6939     1   109.7800468 425.094400
   3335   3336   3337     1   109.8800469 414.216000
   3335   3336   3338     1   109.8800469 414.216000
   3335   3339   3340     1   109.8800469 414.216000
   3335   3339   3341     1   109.8800469 414.216000
   3335   3342   3343     1   109.8800469 414.216000
   3335   3342   3344     1   109.8800469 414.216000
   3336   3348   3349     1   109.8000471 387.438400
   3336   3348   3350     1   109.8000471 387.438400
   3337   3336   3348     1   109.5600471 388.275200
   3337   3336   3338     1   108.4600466 328.025600
   3338   3336   3348     1   109.5600471 388.275200
   3339   3351   3352     1   109.8000471 387.438400
   3339   3351   3353     1   109.8000471 387.438400
   3340   3339   3351     1   109.5600471 388.275200
   3340   3339   3341     1   108.4600466 328.025600
   3341   3339   3351     1   109.5600471 388.275200
   3342   3345   3346     1   109.8000471 387.438400
   3342   3345   3347     1   109.8000471 387.438400
   3343   3342   3345     1   109.5600471 388.275200
   3343   3342   3344     1   108.4600466 328.025600
   3344   3342   3345     1   109.5600471 388.275200
   3345   3354   3355     1   109.5600471 388.275200
   3345   3354   3356     1   109.5600471 388.275200
   3346   3345   3354     1   109.8000471 387.438400
   3346   3345   3347     1   107.5800459 329.699200
   3347   3345   3354     1   109.8000471 387.438400
   3348   3360   3361     1   109.5600471 388.275200
   3348   3360   3362     1   109.5600471 388.275200
   3349   3348   3360     1   109.8000471 387.438400
   3349   3348   3350     1   107.5800459 329.699200
   3350   3348   3360     1   109.8000471 387.438400
   3351   3357   3358     1   109.5600471 388.275200
   3351   3357   3359     1   109.5600471 388.275200
   3352   3351   3357     1   109.8000471 387.438400
   3352   3351   3353     1   107.5800459 329.699200
   3353   3351   3357     1   109.8000471 387.438400
   3355   3354   3363     1   109.7800468 425.094400
   3355   3354   3356     1   108.4600466 328.025600
   3356   3354   3363     1   109.7800468 425.094400
   3358   3357   6970     1   109.7800468 425.094400
   3358   3357   3359     1   108.4600466 328.025600
   3359   3357   6970     1   109.7800468 425.094400
   3361   3360   7001     1   109.7800468 425.094400
   3361   3360   3362     1   108.4600466 328.025600
   3362   3360   7001     1   109.7800468 425.094400
   3364   3365   3366     1   109.8800469 414.216000
   3364   3365   3367     1   109.8800469 414.216000
   3364   3368   3369     1   109.8800469 414.216000
   3364   3368   3370     1   109.8800469 414.216000
   3364   3371   3372     1   109.8800469 414.216000
   3364   3371   3373     1   109.8800469 414.216000
   3365   3377   3378     1   109.8000471 387.438400
   3365   3377   3379     1   109.8000471 387.438400
   3366   3365   3377     1   109.5600471 388.275200
   3366   3365   3367     1   108.4600466 328.025600
   3367   3365   3377     1   109.5600471 388.275200
   3368   3380   3381     1   109.8000471 387.438400
   3368   3380   3382     1   109.8000471 387.438400
   3369   3368   3380     1   109.5600471 388.275200
   3369   3368   3370     1   108.4600466 328.025600
   3370   3368   3380     1   109.5600471 388.275200
   3371   3374   3375     1   109.8000471 387.438400
   3371   3374   3376     1   109.8000471 387.438400
   3372   3371   3374     1   109.5600471 388.275200
   3372   3371   3373     1   108.4600466 328.025600
   3373   3371   3374     1   109.5600471 388.275200
   3374   3383   3384     1   109.5600471 388.275200
   3374   3383   3385     1   109.5600471 388.275200
   3375   3374   3383     1   109.8000471 387.438400
   3375   3374   3376     1   107.5800459 329.699200
   3376   3374   3383     1   109.8000471 387.438400
   3377   3389   3390     1   109.5600471 388.275200
   3377   3389   3391     1   109.5600471 388.275200
   3378   3377   3389     1   109.8000471 387.438400
   3378   3377   3379     1   107.5800459 329.699200
   3379   3377   3389     1   109.8000471 387.438400
   3380   3386   3387     1   109.5600471 388.275200
   3380   3386   3388     1   109.5600471 388.275200
   3381   3380   3386     1   109.8000471 387.438400
   3381   3380   3382     1   107.5800459 329.699200
   3382   3380   3386     1   109.8000471 387.438400
   3384   3383   3392     1   109.7800468 425.094400
   3384   3383   3385     1   108.4600466 328.025600
   3385   3383   3392     1   109.7800468 425.094400
   3387   3386   7032     1   109.7800468 425.094400
   3387   3386   3388     1   108.4600466 328.025600
   3388   3386   7032     1   109.7800468 425.094400
   3390   3389   7063     1   109.7800468 425.094400
   3390   3389   3391     1   108.4600466 328.025600
   3391   3389   7063     1   109.7800468 425.094400
   3393   3394   3395     1   109.8800469 414.216000
   3393   3394   3396     1   109.8800469 414.216000
   3393   3397   3398     1   109.8800469 414.216000
   3393   3397   3399     1   109.8800469 414.216000
   3393   3400   3401     1   109.8800469 414.216000
   3393   3400   3402     1   109.8800469 414.216000
   3394   3406   3407     1   109.8000471 387.438400
   3394   3406   3408     1   109.8000471 387.438400
   3395   3394   3406     1   109.5600471 388.275200
   3395   3394   3396     1   108.4600466 328.025600
   3396   3394   3406     1   109.5600471 388.275200
   3397   3409   3410     1   109.8000471 387.438400
   3397   3409   3411     1   109.8000471 387.438400
   3398   3397   3409     1   109.5600471 388.275200
   3398   3397   3399     1   108.4600466 328.025600
   3399   3397   3409     1   109.5600471 388.275200
   3400   3403   3404     1   109.8000471 387.438400
   3400   3403   3405     1   109.8000471 387.438400
   3401   3400   3403     1   109.5600471 388.275200
   3401   3400   3402     1   108.4600466 328.025600
   3402   3400   3403     1   109.5600471 388.275200
   3403   3412   3413     1   109.5600471 388.275200
   3403   3412   3414     1   109.5600471 388.275200
   3404   3403   3412     1   109.8000471 387.438400
   3404   3403   3405     1   107.5800459 329.699200
   3405   3403   3412     1   109.8000471 387.438400
   3406   3418   3419     1   109.5600471 388.275200
   3406   3418   3420     1   109.5600471 388.275200
   3407   3406   3418     1   109.8000471 387.438400
   3407   3406   3408     1   107.5800459 329.699200
   3408   3406   3418     1   109.8000471 387.438400
   3409   3415   3416     1   109.5600471 388.275200
   3409   3415   3417     1   109.5600471 388.275200
   3410   3409   3415     1   109.8000471 387.438400
   3410   3409   3411     1   107.5800459 329.699200
   3411   3409   3415     1   109.8000471 387.438400
   3413   3412   3421     1   109.7800468 425.094400
   3413   3412   3414     1   108.4600466 328.025600
   3414   3412   3421     1   109.7800468 425.094400
   3416   3415   7094     1   109.7800468 425.094400
   3416   3415   3417     1   108.4600466 328.025600
   3417   3415   7094     1   109.7800468 425.094400
   3419   3418   7125     1   109.7800468 425.094400
   3419   3418   3420     1   108.4600466 328.025600
   3420   3418   7125     1   109.7800468 425.094400
   3422   3423   3424     1   109.8800469 414.216000
   3422   3423   3425     1   109.8800469 414.216000
   3422   3426   3427     1   109.8800469 414.216000
   3422   3426   3428     1   109.8800469 414.216000
   3422   3429   3430     1   109.8800469 414.216000
   3422   3429   3431     1   109.8800469 414.216000
   3423   3435   3436     1   109.8000471 387.438400
   3423   3435   3437     1   109.8000471 387.438400
   3424   3423   3435     1   109.5600471 388.275200
   3424   3423   3425     1   108.4600466 328.025600
   3425   3423   3435     1   109.5600471 388.275200
   3426   3438   3439     1   109.8000471 387.438400
   3426   3438   3440     1   109.8000471 387.438400
   3427   3426   3438     1   109.5600471 388.275200
   3427   3426   3428     1   108.4600466 328.025600
   3428   3426   3438     1   109.5600471 388.275200
   3429   3432   3433     1   109.8000471 387.438400
   3429   3432   3434     1   109.8000471 387.438400
   3430   3429   3432     1   109.5600471 388.275200
   3430   3429   3431     1   108.4600466 328.025600
   3431   3429   3432     1   109.5600471 388.275200
   3432   3441   3442     1   109.5600471 388.275200
   3432   3441   3443     1   109.5600471 388.275200
   3433   3432   3441     1   109.8000471 387.438400
   3433   3432   3434     1   107.5800459 329.699200
   3434   3432   3441     1   109.8000471 387.438400
   3435   3447   3448     1   109.5600471 388.275200
   3435   3447   3449     1   109.5600471 388.275200
   3436   3435   3447     1   109.8000471 387.438400
   3436   3435   3437     1   107.5800459 329.699200
   3437   3435   3447     1   109.8000471 387.438400
   3438   3444   3445     1   109.5600471 388.275200
   3438   3444   3446     1   109.5600471 388.275200
   3439   3438   3444     1   109.8000471 387.438400
   3439   3438   3440     1   107.5800459 329.699200
   3440   3438   3444     1   109.8000471 387.438400
   3442   3441   3450     1   109.7800468 425.094400
   3442   3441   3443     1   108.4600466 328.025600
   3443   3441   3450     1   109.7800468 425.094400
   3445   3444   7156     1   109.7800468 425.094400
   3445   3444   3446     1   108.4600466 328.025600
   3446   3444   7156     1   109.7800468 425.094400
   3448   3447   7187     1   109.7800468 425.094400
   3448   3447   3449     1   108.4600466 328.025600
   3449   3447   7187     1   109.7800468 425.094400
   3451   3452   3453     1   109.8800469 414.216000
   3451   3452   3454     1   109.8800469 414.216000
   3451   3455   3456     1   109.8800469 414.216000
   3451   3455   3457     1   109.8800469 414.216000
   3451   3458   3459     1   109.8800469 414.216000
   3451   3458   3460     1   109.8800469 414.216000
   3452   3464   3465     1   109.8000471 387.438400
   3452   3464   3466     1   109.8000471 387.438400
   3453   3452   3464     1   109.5600471 388.275200
   3453   3452   3454     1   108.4600466 328.025600
   3454   3452   3464     1   109.5600471 388.275200
   3455   3467   3468     1   109.8000471 387.438400
   3455   3467   3469     1   109.8000471 387.438400
   3456   3455   3467     1   109.5600471 388.275200
   3456   3455   3457     1   108.4600466 328.025600
   3457   3455   3467     1   109.5600471 388.275200
   3458   3461   3462     1   109.8000471 387.438400
   3458   3461   3463     1   109.8000471 387.438400
   3459   3458   3461     1   109.5600471 388.275200
   3459   3458   3460     1   108.4600466 328.025600
   3460   3458   3461     1   109.5600471 388.275200
   3461   3470   3471     1   109.5600471 388.275200
   3461   3470   3472     1   109.5600471 388.275200
   3462   3461   3470     1   109.8000471 387.438400
   3462   3461   3463     1   107.5800459 329.699200
   3463   3461   3470     1   109.8000471 387.438400
   3464   3476   3477     1   109.5600471 388.275200
   3464   3476   3478     1   109.5600471 388.275200
   3465   3464   3476     1   109.8000471 387.438400
   3465   3464   3466     1   107.5800459 329.699200
   3466   3464   3476     1   109.8000471 387.438400
   3467   3473   3474     1   109.5600471 388.275200
   3467   3473   3475     1   109.5600471 388.275200
   3468   3467   3473     1   109.8000471 387.438400
   3468   3467   3469     1   107.5800459 329.699200
   3469   3467   3473     1   109.8000471 387.438400
   3471   3470   3479     1   109.7800468 425.094400
   3471   3470   3472     1   108.4600466 328.025600
   3472   3470   3479     1   109.7800468 425.094400
   3474   3473   7218     1   109.7800468 425.094400
   3474   3473   3475     1   108.4600466 328.025600
   3475   3473   7218     1   109.7800468 425.094400
   3477   3476   7249     1   109.7800468 425.094400
   3477   3476   3478     1   108.4600466 328.025600
   3478   3476   7249     1   109.7800468 425.094400
   3480   3481   3482     1   109.8800469 414.216000
   3480   3481   3483     1   109.8800469 414.216000
   3480   3484   3485     1   109.8800469 414.216000
   3480   3484   3486     1   109.8800469 414.216000
   3480   3487   3488     1   109.8800469 414.216000
   3480   3487   3489     1   109.8800469 414.216000
   3481   3493   3494     1   109.8000471 387.438400
   3481   3493   3495     1   109.8000471 387.438400
   3482   3481   3493     1   109.5600471 388.275200
   3482   3481   3483     1   108.4600466 328.025600
   3483   3481   3493     1   109.5600471 388.275200
   3484   3496   3497     1   109.8000471 387.438400
   3484   3496   3498     1   109.8000471 387.438400
   3485   3484   3496     1   109.5600471 388.275200
   3485   3484   3486     1   108.4600466 328.025600
   3486   3484   3496     1   109.5600471 388.275200
   3487   3490   3491     1   109.8000471 387.438400
   3487   3490   3492     1   109.8000471 387.438400
   3488   3487   3490     1   109.5600471 388.275200
   3488   3487   3489     1   108.4600466 328.025600
   3489   3487   3490     1   109.5600471 388.275200
   3490   3499   3500     1   109.5600471 388.275200
   3490   3499   3501     1   109.5600471 388.275200
   3491   3490   3499     1   109.8000471 387.438400
   3491   3490   3492     1   107.5800459 329.699200
   3492   3490   3499     1   109.8000471 387.438400
   3493   3505   3506     1   109.5600471 388.275200
   3493   3505   3507     1   109.5600471 388.275200
   3494   3493   3505     1   109.8000471 387.438400
   3494   3493   3495     1   107.5800459 329.699200
   3495   3493   3505     1   109.8000471 387.438400
   3496   3502   3503     1   109.5600471 388.275200
   3496   3502   3504     1   109.5600471 388.275200
   3497   3496   3502     1   109.8000471 387.438400
   3497   3496   3498     1   107.5800459 329.699200
   3498   3496   3502     1   109.8000471 387.438400
   3500   3499   3508     1   109.7800468 425.094400
   3500   3499   3501     1   108.4600466 328.025600
   3501   3499   3508     1   109.7800468 425.094400
   3503   3502   7280     1   109.7800468 425.094400
   3503   3502   3504     1   108.4600466 328.025600
   3504   3502   7280     1   109.7800468 425.094400
   3506   3505   7311     1   109.7800468 425.094400
   3506   3505   3507     1   108.4600466 328.025600
   3507   3505   7311     1   109.7800468 425.094400
   3509   3510   3511     1   109.8800469 414.216000
   3509   3510   3512     1   109.8800469 414.216000
   3509   3513   3514     1   109.8800469 414.216000
   3509   3513   3515     1   109.8800469 414.216000
   3509   3516   3517     1   109.8800469 414.216000
   3509   3516   3518     1   109.8800469 414.216000
   3510   3522   3523     1   109.8000471 387.438400
   3510   3522   3524     1   109.8000471 387.438400
   3511   3510   3522     1   109.5600471 388.275200
   3511   3510   3512     1   108.4600466 328.025600
   3512   3510   3522     1   109.5600471 388.275200
   3513   3525   3526     1   109.8000471 387.438400
   3513   3525   3527     1   109.8000471 387.438400
   3514   3513   3525     1   109.5600471 388.275200
   3514   3513   3515     1   108.4600466 328.025600
   3515   3513   3525     1   109.5600471 388.275200
   3516   3519   3520     1   109.8000471 387.438400
   3516   3519   3521     1   109.8000471 387.438400
   3517   3516   3519     1   109.5600471 388.275200
   3517   3516   3518     1   108.4600466 328.025600
   3518   3516   3519     1   109.5600471 388.275200
   3519   3528   3529     1   109.5600471 388.275200
   3519   3528   3530     1   109.5600471 388.275200
   3520   3519   3528     1   109.8000471 387.438400
   3520   3519   3521     1   107.5800459 329.699200
   3521   3519   3528     1   109.8000471 387.438400
   3522   3534   3535     1   109.5600471 388.275200
   3522   3534   3536     1   109.5600471 388.275200
   3523   3522   3534     1   109.8000471 387.438400
   3523   3522   3524     1   107.5800459 329.699200
   3524   3522   3534     1   109.8000471 387.438400
   3525   3531   3532     1   109.5600471 388.275200
   3525   3531   3533     1   109.5600471 388.275200
   3526   3525   3531     1   109.8000471 387.438400
   3526   3525   3527     1   107.5800459 329.699200
   3527   3525   3531     1   109.8000471 387.438400
   3529   3528   3537     1   109.7800468 425.094400
   3529   3528   3530     1   108.4600466 328.025600
   3530   3528   3537     1   109.7800468 425.094400
   3532   3531   7342     1   109.7800468 425.094400
   3532   3531   3533     1   108.4600466 328.025600
   3533   3531   7342     1   109.7800468 425.094400
   3535   3534   7373     1   109.7800468 425.094400
   3535   3534   3536     1   108.4600466 328.025600
   3536   3534   7373     1   109.7800468 425.094400
   3538   3539   3540     1   109.8800469 414.216000
   3538   3539   3541     1   109.8800469 414.216000
   3538   3542   3543     1   109.8800469 414.216000
   3538   3542   3544     1   109.8800469 414.216000
   3538   3545   3546     1   109.8800469 414.216000
   3538   3545   3547     1   109.8800469 414.216000
   3539   3551   3552     1   109.8000471 387.438400
   3539   3551   3553     1   109.8000471 387.438400
   3540   3539   3551     1   109.5600471 388.275200
   3540   3539   3541     1   108.4600466 328.025600
   3541   3539   3551     1   109.5600471 388.275200
   3542   3554   3555     1   109.8000471 387.438400
   3542   3554   3556     1   109.8000471 387.438400
   3543   3542   3554     1   109.5600471 388.275200
   3543   3542   3544     1   108.4600466 328.025600
   3544   3542   3554     1   109.5600471 388.275200
   3545   3548   3549     1   109.8000471 387.438400
   3545   3548   3550     1   109.8000471 387.438400
   3546   3545   3548     1   109.5600471 388.275200
   3546   3545   3547     1   108.4600466 328.025600
   3547   3545   3548     1   109.5600471 388.275200
   3548   3557   3558     1   109.5600471 388.275200
   3548   3557   3559     1   109.5600471 388.275200
   3549   3548   3557     1   109.8000471 387.438400
   3549   3548   3550     1   107.5800459 329.699200
   3550   3548   3557     1   109.8000471 387.438400
   3551   3563   3564     1   109.5600471 388.275200
   3551   3563   3565     1   109.5600471 388.275200
   3552   3551   3563     1   109.8000471 387.438400
   3552   3551   3553     1   107.5800459 329.699200
   3553   3551   3563     1   109.8000471 387.438400
   3554   3560   3561     1   109.5600471 388.275200
   3554   3560   3562     1   109.5600471 388.275200
   3555   3554   3560     1   109.8000471 387.438400
   3555   3554   3556     1   107.5800459 329.699200
   3556   3554   3560     1   109.8000471 387.438400
   3558   3557   3566     1   109.7800468 425.094400
   3558   3557   3559     1   108.4600466 328.025600
   3559   3557   3566     1   109.7800468 425.094400
   3561   3560   7404     1   109.7800468 425.094400
   3561   3560   3562     1   108.4600466 328.025600
   3562   3560   7404     1   109.7800468 425.094400
   3564   3563   7435     1   109.7800468 425.094400
   3564   3563   3565     1   108.4600466 328.025600
   3565   3563   7435     1   109.7800468 425.094400
   3567   3568   3569     1   109.8800469 414.216000
   3567   3568   3570     1   109.8800469 414.216000
   3567   3571   3572     1   109.8800469 414.216000
   3567   3571   3573     1   109.8800469 414.216000
   3567   3574   3575     1   109.8800469 414.216000
   3567   3574   3576     1   109.8800469 414.216000
   3568   3580   3581     1   109.8000471 387.438400
   3568   3580   3582     1   109.8000471 387.438400
   3569   3568   3580     1   109.5600471 388.275200
   3569   3568   3570     1   108.4600466 328.025600
   3570   3568   3580     1   109.5600471 388.275200
   3571   3583   3584     1   109.8000471 387.438400
   3571   3583   3585     1   109.8000471 387.438400
   3572   3571   3583     1   109.5600471 388.275200
   3572   3571   3573     1   108.4600466 328.025600
   3573   3571   3583     1   109.5600471 388.275200
   3574   3577   3578     1   109.8000471 387.438400
   3574   3577   3579     1   109.8000471 387.438400
   3575   3574   3577     1   109.5600471 388.275200
   3575   3574   3576     1   108.4600466 328.025600
   3576   3574   3577     1   109.5600471 388.275200
   3577   3586   3587     1   109.5600471 388.275200
   3577   3586   3588     1   109.5600471 388.275200
   3578   3577   3586     1   109.8000471 387.438400
   3578   3577   3579     1   107.5800459 329.699200
   3579   3577   3586     1   109.8000471 387.438400
   3580   3592   3593     1   109.5600471 388.275200
   3580   3592   3594     1   109.5600471 388.275200
   3581   3580   3592     1   109.8000471 387.438400
   3581   3580   3582     1   107.5800459 329.699200
   3582   3580   3592     1   109.8000471 387.438400
   3583   3589   3590     1   109.5600471 388.275200
   3583   3589   3591     1   109.5600471 388.275200
   3584   3583   3589     1   109.8000471 387.438400
   3584   3583   3585     1   107.5800459 329.699200
   3585   3583   3589     1   109.8000471 387.438400
   3587   3586   3595     1   109.7800468 425.094400
   3587   3586   3588     1   108.4600466 328.025600
   3588   3586   3595     1   109.7800468 425.094400
   3590   3589   7466     1   109.7800468 425.094400
   3590   3589   3591     1   108.4600466 328.025600
   3591   3589   7466     1   109.7800468 425.094400
   3593   3592   7497     1   109.7800468 425.094400
   3593   3592   3594     1   108.4600466 328.025600
   3594   3592   7497     1   109.7800468 425.094400
   3596   3597   3598     1   109.8800469 414.216000
   3596   3597   3599     1   109.8800469 414.216000
   3596   3600   3601     1   109.8800469 414.216000
   3596   3600   3602     1   109.8800469 414.216000
   3596   3603   3604     1   109.8800469 414.216000
   3596   3603   3605     1   109.8800469 414.216000
   3597   3609   3610     1   109.8000471 387.438400
   3597   3609   3611     1   109.8000471 387.438400
   3598   3597   3609     1   109.5600471 388.275200
   3598   3597   3599     1   108.4600466 328.025600
   3599   3597   3609     1   109.5600471 388.275200
   3600   3612   3613     1   109.8000471 387.438400
   3600   3612   3614     1   109.8000471 387.438400
   3601   3600   3612     1   109.5600471 388.275200
   3601   3600   3602     1   108.4600466 328.025600
   3602   3600   3612     1   109.5600471 388.275200
   3603   3606   3607     1   109.8000471 387.438400
   3603   3606   3608     1   109.8000471 387.438400
   3604   3603   3606     1   109.5600471 388.275200
   3604   3603   3605     1   108.4600466 328.025600
   3605   3603   3606     1   109.5600471 388.275200
   3606   3615   3616     1   109.5600471 388.275200
   3606   3615   3617     1   109.5600471 388.275200
   3607   3606   3615     1   109.8000471 387.438400
   3607   3606   3608     1   107.5800459 329.699200
   3608   3606   3615     1   109.8000471 387.438400
   3609   3621   3622     1   109.5600471 388.275200
   3609   3621   3623     1   109.5600471 388.275200
   3610   3609   3621     1   109.8000471 387.438400
   3610   3609   3611     1   107.5800459 329.699200
   3611   3609   3621     1   109.8000471 387.438400
   3612   3618   3619     1   109.5600471 388.275200
   3612   3618   3620     1   109.5600471 388.275200
   3613   3612   3618     1   109.8000471 387.438400
   3613   3612   3614     1   107.5800459 329.699200
   3614   3612   3618     1   109.8000471 387.438400
   3616   3615   3624     1   109.7800468 425.094400
   3616   3615   3617     1   108.4600466 328.025600
   3617   3615   3624     1   109.7800468 425.094400
   3619   3618   7528     1   109.7800468 425.094400
   3619   3618   3620     1   108.4600466 328.025600
   3620   3618   7528     1   109.7800468 425.094400
   3622   3621   7559     1   109.7800468 425.094400
   3622   3621   3623     1   108.4600466 328.025600
   3623   3621   7559     1   109.7800468 425.094400
   3625   3626   3627     1   109.8800469 414.216000
   3625   3626   3628     1   109.8800469 414.216000
   3625   3629   3630     1   109.8800469 414.216000
   3625   3629   3631     1   109.8800469 414.216000
   3625   3632   3633     1   109.8800469 414.216000
   3625   3632   3634     1   109.8800469 414.216000
   3626   3638   3639     1   109.8000471 387.438400
   3626   3638   3640     1   109.8000471 387.438400
   3627   3626   3638     1   109.5600471 388.275200
   3627   3626   3628     1   108.4600466 328.025600
   3628   3626   3638     1   109.5600471 388.275200
   3629   3641   3642     1   109.8000471 387.438400
   3629   3641   3643     1   109.8000471 387.438400
   3630   3629   3641     1   109.5600471 388.275200
   3630   3629   3631     1   108.4600466 328.025600
   3631   3629   3641     1   109.5600471 388.275200
   3632   3635   3636     1   109.8000471 387.438400
   3632   3635   3637     1   109.8000471 387.438400
   3633   3632   3635     1   109.5600471 388.275200
   3633   3632   3634     1   108.4600466 328.025600
   3634   3632   3635     1   109.5600471 388.275200
   3635   3644   3645     1   109.5600471 388.275200
   3635   3644   3646     1   109.5600471 388.275200
   3636   3635   3644     1   109.8000471 387.438400
   3636   3635   3637     1   107.5800459 329.699200
   3637   3635   3644     1   109.8000471 387.438400
   3638   3650   3651     1   109.5600471 388.275200
   3638   3650   3652     1   109.5600471 388.275200
   3639   3638   3650     1   109.8000471 387.438400
   3639   3638   3640     1   107.5800459 329.699200
   3640   3638   3650     1   109.8000471 387.438400
   3641   3647   3648     1   109.5600471 388.275200
   3641   3647   3649     1   109.5600471 388.275200
   3642   3641   3647     1   109.8000471 387.438400
   3642   3641   3643     1   107.5800459 329.699200
   3643   3641   3647     1   109.8000471 387.438400
   3645   3644   3653     1   109.7800468 425.094400
   3645   3644   3646     1   108.4600466 328.025600
   3646   3644   3653     1   109.7800468 425.094400
   3648   3647   7590     1   109.7800468 425.094400
   3648   3647   3649     1   108.4600466 328.025600
   3649   3647   7590     1   109.7800468 425.094400
   3651   3650   7621     1   109.7800468 425.094400
   3651   3650   3652     1   108.4600466 328.025600
   3652   3650   7621     1   109.7800468 425.094400
   3654   3657   3658     1   109.8000471 387.438400
   3654   3657   3659     1   109.8000471 387.438400
   3655   3654   3657     1   109.5600471 388.275200
   3655   3654   3684     1   109.7800468 425.094400
   3655   3654   3656     1   108.4600466 328.025600
   3656   3654   3657     1   109.5600471 388.275200
   3656   3654   3684     1   109.7800468 425.094400
   3657   3660   3661     1   109.5600471 388.275200
   3657   3660   3662     1   109.5600471 388.275200
   3658   3657   3660     1   109.8000471 387.438400
   3658   3657   3659     1   107.5800459 329.699200
   3659   3657   3660     1   109.8000471 387.438400
   3661   3660   3663     1   109.8800469 414.216000
   3661   3660   3662     1   108.4600466 328.025600
   3662   3660   3663     1   109.8800469 414.216000
   3663   3664   3665     1   109.8800469 414.216000
   3663   3664   3666     1   109.8800469 414.216000
   3663   3674   3675     1   109.8800469 414.216000
   3663   3674   3676     1   109.8800469 414.216000
   3664   3667   3668     1   109.8000471 387.438400
   3664   3667   3669     1   109.8000471 387.438400
   3665   3664   3667     1   109.5600471 388.275200
   3665   3664   3666     1   108.4600466 328.025600
   3666   3664   3667     1   109.5600471 388.275200
   3668   3667   3670     1   108.7700466 392.459200
   3668   3667   3669     1   107.5800459 329.699200
   3669   3667   3670     1   108.7700466 392.459200
   3670   3672   3673     1   106.5500460 417.563200
   3674   3677   3678     1   109.8000471 387.438400
   3674   3677   3679     1   109.8000471 387.438400
   3675   3674   3677     1   109.5600471 388.275200
   3675   3674   3676     1   108.4600466 328.025600
   3676   3674   3677     1   109.5600471 388.275200
   3678   3677   3680     1   108.7700466 392.459200
   3678   3677   3679     1   107.5800459 329.699200
   3679   3677   3680     1   108.7700466 392.459200
   3680   3682   3683     1   106.5500460 417.563200
   3685   3688   3689     1   109.8000471 387.438400
   3685   3688   3690     1   109.8000471 387.438400
   3686   3685   3688     1   109.5600471 388.275200
   3686   3685   3715     1   109.7800468 425.094400
   3686   3685   3687     1   108.4600466 328.025600
   3687   3685   3688     1   109.5600471 388.275200
   3687   3685   3715     1   109.7800468 425.094400
   3688   3691   3692     1   109.5600471 388.275200
   3688   3691   3693     1   109.5600471 388.275200
   3689   3688   3691     1   109.8000471 387.438400
   3689   3688   3690     1   107.5800459 329.699200
   3690   3688   3691     1   109.8000471 387.438400
   3692   3691   3694     1   109.8800469 414.216000
   3692   3691   3693     1   108.4600466 328.025600
   3693   3691   3694     1   109.8800469 414.216000
   3694   3695   3696     1   109.8800469 414.216000
   3694   3695   3697     1   109.8800469 414.216000
   3694   3705   3706     1   109.8800469 414.216000
   3694   3705   3707     1   109.8800469 414.216000
   3695   3698   3699     1   109.8000471 387.438400
   3695   3698   3700     1   109.8000471 387.438400
   3696   3695   3698     1   109.5600471 388.275200
   3696   3695   3697     1   108.4600466 328.025600
   3697   3695   3698     1   109.5600471 388.275200
   3699   3698   3701     1   108.7700466 392.459200
   3699   3698   3700     1   107.5800459 329.699200
   3700   3698   3701     1   108.7700466 392.459200
   3701   3703   3704     1   106.5500460 417.563200
   3705   3708   3709     1   109.8000471 387.438400
   3705   3708   3710     1   109.8000471 387.438400
   3706   3705   3708     1   109.5600471 388.275200
   3706   3705   3707     1   108.4600466 328.025600
   3707   3705   3708     1   109.5600471 388.275200
   3709   3708   3711     1   108.7700466 392.459200
   3709   3708   3710     1   107.5800459 329.699200
   3710   3708   3711     1   108.7700466 392.459200
   3711   3713   3714     1   106.5500460 417.563200
   3716   3719   3720     1   109.8000471 387.438400
   3716   3719   3721     1   109.8000471 387.438400
   3717   3716   3719     1   109.5600471 388.275200
   3717   3716   3746     1   109.7800468 425.094400
   3717   3716   3718     1   108.4600466 328.025600
   3718   3716   3719     1   109.5600471 388.275200
   3718   3716   3746     1   109.7800468 425.094400
   3719   3722   3723     1   109.5600471 388.275200
   3719   3722   3724     1   109.5600471 388.275200
   3720   3719   3722     1   109.8000471 387.438400
   3720   3719   3721     1   107.5800459 329.699200
   3721   3719   3722     1   109.8000471 387.438400
   3723   3722   3725     1   109.8800469 414.216000
   3723   3722   3724     1   108.4600466 328.025600
   3724   3722   3725     1   109.8800469 414.216000
   3725   3726   3727     1   109.8800469 414.216000
   3725   3726   3728     1   109.8800469 414.216000
   3725   3736   3737     1   109.8800469 414.216000
   3725   3736   3738     1   109.8800469 414.216000
   3726   3729   3730     1   109.8000471 387.438400
   3726   3729   3731     1   109.8000471 387.438400
   3727   3726   3729     1   109.5600471 388.275200
   3727   3726   3728     1   108.4600466 328.025600
   3728   3726   3729     1   109.5600471 388.275200
   3730   3729   3732     1   108.7700466 392.459200
   3730   3729   3731     1   107.5800459 329.699200
   3731   3729   3732     1   108.7700466 392.459200
   3732   3734   3735     1   106.5500460 417.563200
   3736   3739   3740     1   109.8000471 387.438400
   3736   3739   3741     1   109.8000471 387.438400
   3737   3736   3739     1   109.5600471 388.275200
   3737   3736   3738     1   108.4600466 328.025600
   3738   3736   3739     1   109.5600471 388.275200
   3740   3739   3742     1   108.7700466 392.459200
   3740   3739   3741     1   107.5800459 329.699200
   3741   3739   3742     1   108.7700466 392.459200
   3742   3744   3745     1   106.5500460 417.563200
   3747   3750   3751     1   109.8000471 387.438400
   3747   3750   3752     1   109.8000471 387.438400
   3748   3747   3750     1   109.5600471 388.275200
   3748   3747   3777     1   109.7800468 425.094400
   3748   3747   3749     1   108.4600466 328.025600
   3749   3747   3750     1   109.5600471 388.275200
   3749   3747   3777     1   109.7800468 425.094400
   3750   3753   3754     1   109.5600471 388.275200
   3750   3753   3755     1   109.5600471 388.275200
   3751   3750   3753     1   109.8000471 387.438400
   3751   3750   3752     1   107.5800459 329.699200
   3752   3750   3753     1   109.8000471 387.438400
   3754   3753   3756     1   109.8800469 414.216000
   3754   3753   3755     1   108.4600466 328.025600
   3755   3753   3756     1   109.8800469 414.216000
   3756   3757   3758     1   109.8800469 414.216000
   3756   3757   3759     1   109.8800469 414.216000
   3756   3767   3768     1   109.8800469 414.216000
   3756   3767   3769     1   109.8800469 414.216000
   3757   3760   3761     1   109.8000471 387.438400
   3757   3760   3762     1   109.8000471 387.438400
   3758   3757   3760     1   109.5600471 388.275200
   3758   3757   3759     1   108.4600466 328.025600
   3759   3757   3760     1   109.5600471 388.275200
   3761   3760   3763     1   108.7700466 392.459200
   3761   3760   3762     1   107.5800459 329.699200
   3762   3760   3763     1   108.7700466 392.459200
   3763   3765   3766     1   106.5500460 417.563200
   3767   3770   3771     1   109.8000471 387.438400
   3767   3770   3772     1   109.8000471 387.438400
   3768   3767   3770     1   109.5600471 388.275200
   3768   3767   3769     1   108.4600466 328.025600
   3769   3767   3770     1   109.5600471 388.275200
   3771   3770   3773     1   108.7700466 392.459200
   3771   3770   3772     1   107.5800459 329.699200
   3772   3770   3773     1   108.7700466 392.459200
   3773   3775   3776     1   106.5500460 417.563200
   3778   3781   3782     1   109.8000471 387.438400
   3778   3781   3783     1   109.8000471 387.438400
   3779   3778   3781     1   109.5600471 388.275200
   3779   3778   3808     1   109.7800468 425.094400
   3779   3778   3780     1   108.4600466 328.025600
   3780   3778   3781     1   109.5600471 388.275200
   3780   3778   3808     1   109.7800468 425.094400
   3781   3784   3785     1   109.5600471 388.275200
   3781   3784   3786     1   109.5600471 388.275200
   3782   3781   3784     1   109.8000471 387.438400
   3782   3781   3783     1   107.5800459 329.699200
   3783   3781   3784     1   109.8000471 387.438400
   3785   3784   3787     1   109.8800469 414.216000
   3785   3784   3786     1   108.4600466 328.025600
   3786   3784   3787     1   109.8800469 414.216000
   3787   3788   3789     1   109.8800469 414.216000
   3787   3788   3790     1   109.8800469 414.216000
   3787   3798   3799     1   109.8800469 414.216000
   3787   3798   3800     1   109.8800469 414.216000
   3788   3791   3792     1   109.8000471 387.438400
   3788   3791   3793     1   109.8000471 387.438400
   3789   3788   3791     1   109.5600471 388.275200
   3789   3788   3790     1   108.4600466 328.025600
   3790   3788   3791     1   109.5600471 388.275200
   3792   3791   3794     1   108.7700466 392.459200
   3792   3791   3793     1   107.5800459 329.699200
   3793   3791   3794     1   108.7700466 392.459200
   3794   3796   3797     1   106.5500460 417.563200
   3798   3801   3802     1   109.8000471 387.438400
   3798   3801   3803     1   109.8000471 387.438400
   3799   3798   3801     1   109.5600471 388.275200
   3799   3798   3800     1   108.4600466 328.025600
   3800   3798   3801     1   109.5600471 388.275200
   3802   3801   3804     1   108.7700466 392.459200
   3802   3801   3803     1   107.5800459 329.699200
   3803   3801   3804     1   108.7700466 392.459200
   3804   3806   3807     1   106.5500460 417.563200
   3809   3812   3813     1   109.8000471 387.438400
   3809   3812   3814     1   109.8000471 387.438400
   3810   3809   3812     1   109.5600471 388.275200
   3810   3809   3839     1   109.7800468 425.094400
   3810   3809   3811     1   108.4600466 328.025600
   3811   3809   3812     1   109.5600471 388.275200
   3811   3809   3839     1   109.7800468 425.094400
   3812   3815   3816     1   109.5600471 388.275200
   3812   3815   3817     1   109.5600471 388.275200
   3813   3812   3815     1   109.8000471 387.438400
   3813   3812   3814     1   107.5800459 329.699200
   3814   3812   3815     1   109.8000471 387.438400
   3816   3815   3818     1   109.8800469 414.216000
   3816   3815   3817     1   108.4600466 328.025600
   3817   3815   3818     1   109.8800469 414.216000
   3818   3819   3820     1   109.8800469 414.216000
   3818   3819   3821     1   109.8800469 414.216000
   3818   3829   3830     1   109.8800469 414.216000
   3818   3829   3831     1   109.8800469 414.216000
   3819   3822   3823     1   109.8000471 387.438400
   3819   3822   3824     1   109.8000471 387.438400
   3820   3819   3822     1   109.5600471 388.275200
   3820   3819   3821     1   108.4600466 328.025600
   3821   3819   3822     1   109.5600471 388.275200
   3823   3822   3825     1   108.7700466 392.459200
   3823   3822   3824     1   107.5800459 329.699200
   3824   3822   3825     1   108.7700466 392.459200
   3825   3827   3828     1   106.5500460 417.563200
   3829   3832   3833     1   109.8000471 387.438400
   3829   3832   3834     1   109.8000471 387.438400
   3830   3829   3832     1   109.5600471 388.275200
   3830   3829   3831     1   108.4600466 328.025600
   3831   3829   3832     1   109.5600471 388.275200
   3833   3832   3835     1   108.7700466 392.459200
   3833   3832   3834     1   107.5800459 329.699200
   3834   3832   3835     1   108.7700466 392.459200
   3835   3837   3838     1   106.5500460 417.563200
   3840   3843   3844     1   109.8000471 387.438400
   3840   3843   3845     1   109.8000471 387.438400
   3841   3840   3843     1   109.5600471 388.275200
   3841   3840   3870     1   109.7800468 425.094400
   3841   3840   3842     1   108.4600466 328.025600
   3842   3840   3843     1   109.5600471 388.275200
   3842   3840   3870     1   109.7800468 425.094400
   3843   3846   3847     1   109.5600471 388.275200
   3843   3846   3848     1   109.5600471 388.275200
   3844   3843   3846     1   109.8000471 387.438400
   3844   3843   3845     1   107.5800459 329.699200
   3845   3843   3846     1   109.8000471 387.438400
   3847   3846   3849     1   109.8800469 414.216000
   3847   3846   3848     1   108.4600466 328.025600
   3848   3846   3849     1   109.8800469 414.216000
   3849   3850   3851     1   109.8800469 414.216000
   3849   3850   3852     1   109.8800469 414.216000
   3849   3860   3861     1   109.8800469 414.216000
   3849   3860   3862     1   109.8800469 414.216000
   3850   3853   3854     1   109.8000471 387.438400
   3850   3853   3855     1   109.8000471 387.438400
   3851   3850   3853     1   109.5600471 388.275200
   3851   3850   3852     1   108.4600466 328.025600
   3852   3850   3853     1   109.5600471 388.275200
   3854   3853   3856     1   108.7700466 392.459200
   3854   3853   3855     1   107.5800459 329.699200
   3855   3853   3856     1   108.7700466 392.459200
   3856   3858   3859     1   106.5500460 417.563200
   3860   3863   3864     1   109.8000471 387.438400
   3860   3863   3865     1   109.8000471 387.438400
   3861   3860   3863     1   109.5600471 388.275200
   3861   3860   3862     1   108.4600466 328.025600
   3862   3860   3863     1   109.5600471 388.275200
   3864   3863   3866     1   108.7700466 392.459200
   3864   3863   3865     1   107.5800459 329.699200
   3865   3863   3866     1   108.7700466 392.459200
   3866   3868   3869     1   106.5500460 417.563200
   3871   3874   3875     1   109.8000471 387.438400
   3871   3874   3876     1   109.8000471 387.438400
   3872   3871   3874     1   109.5600471 388.275200
   3872   3871   3901     1   109.7800468 425.094400
   3872   3871   3873     1   108.4600466 328.025600
   3873   3871   3874     1   109.5600471 388.275200
   3873   3871   3901     1   109.7800468 425.094400
   3874   3877   3878     1   109.5600471 388.275200
   3874   3877   3879     1   109.5600471 388.275200
   3875   3874   3877     1   109.8000471 387.438400
   3875   3874   3876     1   107.5800459 329.699200
   3876   3874   3877     1   109.8000471 387.438400
   3878   3877   3880     1   109.8800469 414.216000
   3878   3877   3879     1   108.4600466 328.025600
   3879   3877   3880     1   109.8800469 414.216000
   3880   3881   3882     1   109.8800469 414.216000
   3880   3881   3883     1   109.8800469 414.216000
   3880   3891   3892     1   109.8800469 414.216000
   3880   3891   3893     1   109.8800469 414.216000
   3881   3884   3885     1   109.8000471 387.438400
   3881   3884   3886     1   109.8000471 387.438400
   3882   3881   3884     1   109.5600471 388.275200
   3882   3881   3883     1   108.4600466 328.025600
   3883   3881   3884     1   109.5600471 388.275200
   3885   3884   3887     1   108.7700466 392.459200
   3885   3884   3886     1   107.5800459 329.699200
   3886   3884   3887     1   108.7700466 392.459200
   3887   3889   3890     1   106.5500460 417.563200
   3891   3894   3895     1   109.8000471 387.438400
   3891   3894   3896     1   109.8000471 387.438400
   3892   3891   3894     1   109.5600471 388.275200
   3892   3891   3893     1   108.4600466 328.025600
   3893   3891   3894     1   109.5600471 388.275200
   3895   3894   3897     1   108.7700466 392.459200
   3895   3894   3896     1   107.5800459 329.699200
   3896   3894   3897     1   108.7700466 392.459200
   3897   3899   3900     1   106.5500460 417.563200
   3902   3905   3906     1   109.8000471 387.438400
   3902   3905   3907     1   109.8000471 387.438400
   3903   3902   3905     1   109.5600471 388.275200
   3903   3902   3932     1   109.7800468 425.094400
   3903   3902   3904     1   108.4600466 328.025600
   3904   3902   3905     1   109.5600471 388.275200
   3904   3902   3932     1   109.7800468 425.094400
   3905   3908   3909     1   109.5600471 388.275200
   3905   3908   3910     1   109.5600471 388.275200
   3906   3905   3908     1   109.8000471 387.438400
   3906   3905   3907     1   107.5800459 329.699200
   3907   3905   3908     1   109.8000471 387.438400
   3909   3908   3911     1   109.8800469 414.216000
   3909   3908   3910     1   108.4600466 328.025600
   3910   3908   3911     1   109.8800469 414.216000
   3911   3912   3913     1   109.8800469 414.216000
   3911   3912   3914     1   109.8800469 414.216000
   3911   3922   3923     1   109.8800469 414.216000
   3911   3922   3924     1   109.8800469 414.216000
   3912   3915   3916     1   109.8000471 387.438400
   3912   3915   3917     1   109.8000471 387.438400
   3913   3912   3915     1   109.5600471 388.275200
   3913   3912   3914     1   108.4600466 328.025600
   3914   3912   3915     1   109.5600471 388.275200
   3916   3915   3918     1   108.7700466 392.459200
   3916   3915   3917     1   107.5800459 329.699200
   3917   3915   3918     1   108.7700466 392.459200
   3918   3920   3921     1   106.5500460 417.563200
   3922   3925   3926     1   109.8000471 387.438400
   3922   3925   3927     1   109.8000471 387.438400
   3923   3922   3925     1   109.5600471 388.275200
   3923   3922   3924     1   108.4600466 328.025600
   3924   3922   3925     1   109.5600471 388.275200
   3926   3925   3928     1   108.7700466 392.459200
   3926   3925   3927     1   107.5800459 329.699200
   3927   3925   3928     1   108.7700466 392.459200
   3928   3930   3931     1   106.5500460 417.563200
   3933   3936   3937     1   109.8000471 387.438400
   3933   3936   3938     1   109.8000471 387.438400
   3934   3933   3936     1   109.5600471 388.275200
   3934   3933   3963     1   109.7800468 425.094400
   3934   3933   3935     1   108.4600466 328.025600
   3935   3933   3936     1   109.5600471 388.275200
   3935   3933   3963     1   109.7800468 425.094400
   3936   3939   3940     1   109.5600471 388.275200
   3936   3939   3941     1   109.5600471 388.275200
   3937   3936   3939     1   109.8000471 387.438400
   3937   3936   3938     1   107.5800459 329.699200
   3938   3936   3939     1   109.8000471 387.438400
   3940   3939   3942     1   109.8800469 414.216000
   3940   3939   3941     1   108.4600466 328.025600
   3941   3939   3942     1   109.8800469 414.216000
   3942   3943   3944     1   109.8800469 414.216000
   3942   3943   3945     1   109.8800469 414.216000
   3942   3953   3954     1   109.8800469 414.216000
   3942   3953   3955     1   109.8800469 414.216000
   3943   3946   3947     1   109.8000471 387.438400
   3943   3946   3948     1   109.8000471 387.438400
   3944   3943   3946     1   109.5600471 388.275200
   3944   3943   3945     1   108.4600466 328.025600
   3945   3943   3946     1   109.5600471 388.275200
   3947   3946   3949     1   108.7700466 392.459200
   3947   3946   3948     1   107.5800459 329.699200
   3948   3946   3949     1   108.7700466 392.459200
   3949   3951   3952     1   106.5500460 417.563200
   3953   3956   3957     1   109.8000471 387.438400
   3953   3956   3958     1   109.8000471 387.438400
   3954   3953   3956     1   109.5600471 388.275200
   3954   3953   3955     1   108.4600466 328.025600
   3955   3953   3956     1   109.5600471 388.275200
   3957   3956   3959     1   108.7700466 392.459200
   3957   3956   3958     1   107.5800459 329.699200
   3958   3956   3959     1   108.7700466 392.459200
   3959   3961   3962     1   106.5500460 417.563200
   3964   3967   3968     1   109.8000471 387.438400
   3964   3967   3969     1   109.8000471 387.438400
   3965   3964   3967     1   109.5600471 388.275200
   3965   3964   3994     1   109.7800468 425.094400
   3965   3964   3966     1   108.4600466 328.025600
   3966   3964   3967     1   109.5600471 388.275200
   3966   3964   3994     1   109.7800468 425.094400
   3967   3970   3971     1   109.5600471 388.275200
   3967   3970   3972     1   109.5600471 388.275200
   3968   3967   3970     1   109.8000471 387.438400
   3968   3967   3969     1   107.5800459 329.699200
   3969   3967   3970     1   109.8000471 387.438400
   3971   3970   3973     1   109.8800469 414.216000
   3971   3970   3972     1   108.4600466 328.025600
   3972   3970   3973     1   109.8800469 414.216000
   3973   3974   3975     1   109.8800469 414.216000
   3973   3974   3976     1   109.8800469 414.216000
   3973   3984   3985     1   109.8800469 414.216000
   3973   3984   3986     1   109.8800469 414.216000
   3974   3977   3978     1   109.8000471 387.438400
   3974   3977   3979     1   109.8000471 387.438400
   3975   3974   3977     1   109.5600471 388.275200
   3975   3974   3976     1   108.4600466 328.025600
   3976   3974   3977     1   109.5600471 388.275200
   3978   3977   3980     1   108.7700466 392.459200
   3978   3977   3979     1   107.5800459 329.699200
   3979   3977   3980     1   108.7700466 392.459200
   3980   3982   3983     1   106.5500460 417.563200
   3984   3987   3988     1   109.8000471 387.438400
   3984   3987   3989     1   109.8000471 387.438400
   3985   3984   3987     1   109.5600471 388.275200
   3985   3984   3986     1   108.4600466 328.025600
   3986   3984   3987     1   109.5600471 388.275200
   3988   3987   3990     1   108.7700466 392.459200
   3988   3987   3989     1   107.5800459 329.699200
   3989   3987   3990     1   108.7700466 392.459200
   3990   3992   3993     1   106.5500460 417.563200
   3995   3998   3999     1   109.8000471 387.438400
   3995   3998   4000     1   109.8000471 387.438400
   3996   3995   3998     1   109.5600471 388.275200
   3996   3995   4025     1   109.7800468 425.094400
   3996   3995   3997     1   108.4600466 328.025600
   3997   3995   3998     1   109.5600471 388.275200
   3997   3995   4025     1   109.7800468 425.094400
   3998   4001   4002     1   109.5600471 388.275200
   3998   4001   4003     1   109.5600471 388.275200
   3999   3998   4001     1   109.8000471 387.438400
   3999   3998   4000     1   107.5800459 329.699200
   4000   3998   4001     1   109.8000471 387.438400
   4002   4001   4004     1   109.8800469 414.216000
   4002   4001   4003     1   108.4600466 328.025600
   4003   4001   4004     1   109.8800469 414.216000
   4004   4005   4006     1   109.8800469 414.216000
   4004   4005   4007     1   109.8800469 414.216000
   4004   4015   4016     1   109.8800469 414.216000
   4004   4015   4017     1   109.8800469 414.216000
   4005   4008   4009     1   109.8000471 387.438400
   4005   4008   4010     1   109.8000471 387.438400
   4006   4005   4008     1   109.5600471 388.275200
   4006   4005   4007     1   108.4600466 328.025600
   4007   4005   4008     1   109.5600471 388.275200
   4009   4008   4011     1   108.7700466 392.459200
   4009   4008   4010     1   107.5800459 329.699200
   4010   4008   4011     1   108.7700466 392.459200
   4011   4013   4014     1   106.5500460 417.563200
   4015   4018   4019     1   109.8000471 387.438400
   4015   4018   4020     1   109.8000471 387.438400
   4016   4015   4018     1   109.5600471 388.275200
   4016   4015   4017     1   108.4600466 328.025600
   4017   4015   4018     1   109.5600471 388.275200
   4019   4018   4021     1   108.7700466 392.459200
   4019   4018   4020     1   107.5800459 329.699200
   4020   4018   4021     1   108.7700466 392.459200
   4021   4023   4024     1   106.5500460 417.563200
   4026   4029   4030     1   109.8000471 387.438400
   4026   4029   4031     1   109.8000471 387.438400
   4027   4026   4029     1   109.5600471 388.275200
   4027   4026   4056     1   109.7800468 425.094400
   4027   4026   4028     1   108.4600466 328.025600
   4028   4026   4029     1   109.5600471 388.275200
   4028   4026   4056     1   109.7800468 425.094400
   4029   4032   4033     1   109.5600471 388.275200
   4029   4032   4034     1   109.5600471 388.275200
   4030   4029   4032     1   109.8000471 387.438400
   4030   4029   4031     1   107.5800459 329.699200
   4031   4029   4032     1   109.8000471 387.438400
   4033   4032   4035     1   109.8800469 414.216000
   4033   4032   4034     1   108.4600466 328.025600
   4034   4032   4035     1   109.8800469 414.216000
   4035   4036   4037     1   109.8800469 414.216000
   4035   4036   4038     1   109.8800469 414.216000
   4035   4046   4047     1   109.8800469 414.216000
   4035   4046   4048     1   109.8800469 414.216000
   4036   4039   4040     1   109.8000471 387.438400
   4036   4039   4041     1   109.8000471 387.438400
   4037   4036   4039     1   109.5600471 388.275200
   4037   4036   4038     1   108.4600466 328.025600
   4038   4036   4039     1   109.5600471 388.275200
   4040   4039   4042     1   108.7700466 392.459200
   4040   4039   4041     1   107.5800459 329.699200
   4041   4039   4042     1   108.7700466 392.459200
   4042   4044   4045     1   106.5500460 417.563200
   4046   4049   4050     1   109.8000471 387.438400
   4046   4049   4051     1   109.8000471 387.438400
   4047   4046   4049     1   109.5600471 388.275200
   4047   4046   4048     1   108.4600466 328.025600
   4048   4046   4049     1   109.5600471 388.275200
   4050   4049   4052     1   108.7700466 392.459200
   4050   4049   4051     1   107.5800459 329.699200
   4051   4049   4052     1   108.7700466 392.459200
   4052   4054   4055     1   106.5500460 417.563200
   4057   4060   4061     1   109.8000471 387.438400
   4057   4060   4062     1   109.8000471 387.438400
   4058   4057   4060     1   109.5600471 388.275200
   4058   4057   4087     1   109.7800468 425.094400
   4058   4057   4059     1   108.4600466 328.025600
   4059   4057   4060     1   109.5600471 388.275200
   4059   4057   4087     1   109.7800468 425.094400
   4060   4063   4064     1   109.5600471 388.275200
   4060   4063   4065     1   109.5600471 388.275200
   4061   4060   4063     1   109.8000471 387.438400
   4061   4060   4062     1   107.5800459 329.699200
   4062   4060   4063     1   109.8000471 387.438400
   4064   4063   4066     1   109.8800469 414.216000
   4064   4063   4065     1   108.4600466 328.025600
   4065   4063   4066     1   109.8800469 414.216000
   4066   4067   4068     1   109.8800469 414.216000
   4066   4067   4069     1   109.8800469 414.216000
   4066   4077   4078     1   109.8800469 414.216000
   4066   4077   4079     1   109.8800469 414.216000
   4067   4070   4071     1   109.8000471 387.438400
   4067   4070   4072     1   109.8000471 387.438400
   4068   4067   4070     1   109.5600471 388.275200
   4068   4067   4069     1   108.4600466 328.025600
   4069   4067   4070     1   109.5600471 388.275200
   4071   4070   4073     1   108.7700466 392.459200
   4071   4070   4072     1   107.5800459 329.699200
   4072   4070   4073     1   108.7700466 392.459200
   4073   4075   4076     1   106.5500460 417.563200
   4077   4080   4081     1   109.8000471 387.438400
   4077   4080   4082     1   109.8000471 387.438400
   4078   4077   4080     1   109.5600471 388.275200
   4078   4077   4079     1   108.4600466 328.025600
   4079   4077   4080     1   109.5600471 388.275200
   4081   4080   4083     1   108.7700466 392.459200
   4081   4080   4082     1   107.5800459 329.699200
   4082   4080   4083     1   108.7700466 392.459200
   4083   4085   4086     1   106.5500460 417.563200
   4088   4091   4092     1   109.8000471 387.438400
   4088   4091   4093     1   109.8000471 387.438400
   4089   4088   4091     1   109.5600471 388.275200
   4089   4088   4118     1   109.7800468 425.094400
   4089   4088   4090     1   108.4600466 328.025600
   4090   4088   4091     1   109.5600471 388.275200
   4090   4088   4118     1   109.7800468 425.094400
   4091   4094   4095     1   109.5600471 388.275200
   4091   4094   4096     1   109.5600471 388.275200
   4092   4091   4094     1   109.8000471 387.438400
   4092   4091   4093     1   107.5800459 329.699200
   4093   4091   4094     1   109.8000471 387.438400
   4095   4094   4097     1   109.8800469 414.216000
   4095   4094   4096     1   108.4600466 328.025600
   4096   4094   4097     1   109.8800469 414.216000
   4097   4098   4099     1   109.8800469 414.216000
   4097   4098   4100     1   109.8800469 414.216000
   4097   4108   4109     1   109.8800469 414.216000
   4097   4108   4110     1   109.8800469 414.216000
   4098   4101   4102     1   109.8000471 387.438400
   4098   4101   4103     1   109.8000471 387.438400
   4099   4098   4101     1   109.5600471 388.275200
   4099   4098   4100     1   108.4600466 328.025600
   4100   4098   4101     1   109.5600471 388.275200
   4102   4101   4104     1   108.7700466 392.459200
   4102   4101   4103     1   107.5800459 329.699200
   4103   4101   4104     1   108.7700466 392.459200
   4104   4106   4107     1   106.5500460 417.563200
   4108   4111   4112     1   109.8000471 387.438400
   4108   4111   4113     1   109.8000471 387.438400
   4109   4108   4111     1   109.5600471 388.275200
   4109   4108   4110     1   108.4600466 328.025600
   4110   4108   4111     1   109.5600471 388.275200
   4112   4111   4114     1   108.7700466 392.459200
   4112   4111   4113     1   107.5800459 329.699200
   4113   4111   4114     1   108.7700466 392.459200
   4114   4116   4117     1   106.5500460 417.563200
   4119   4122   4123     1   109.8000471 387.438400
   4119   4122   4124     1   109.8000471 387.438400
   4120   4119   4122     1   109.5600471 388.275200
   4120   4119   4149     1   109.7800468 425.094400
   4120   4119   4121     1   108.4600466 328.025600
   4121   4119   4122     1   109.5600471 388.275200
   4121   4119   4149     1   109.7800468 425.094400
   4122   4125   4126     1   109.5600471 388.275200
   4122   4125   4127     1   109.5600471 388.275200
   4123   4122   4125     1   109.8000471 387.438400
   4123   4122   4124     1   107.5800459 329.699200
   4124   4122   4125     1   109.8000471 387.438400
   4126   4125   4128     1   109.8800469 414.216000
   4126   4125   4127     1   108.4600466 328.025600
   4127   4125   4128     1   109.8800469 414.216000
   4128   4129   4130     1   109.8800469 414.216000
   4128   4129   4131     1   109.8800469 414.216000
   4128   4139   4140     1   109.8800469 414.216000
   4128   4139   4141     1   109.8800469 414.216000
   4129   4132   4133     1   109.8000471 387.438400
   4129   4132   4134     1   109.8000471 387.438400
   4130   4129   4132     1   109.5600471 388.275200
   4130   4129   4131     1   108.4600466 328.025600
   4131   4129   4132     1   109.5600471 388.275200
   4133   4132   4135     1   108.7700466 392.459200
   4133   4132   4134     1   107.5800459 329.699200
   4134   4132   4135     1   108.7700466 392.459200
   4135   4137   4138     1   106.5500460 417.563200
   4139   4142   4143     1   109.8000471 387.438400
   4139   4142   4144     1   109.8000471 387.438400
   4140   4139   4142     1   109.5600471 388.275200
   4140   4139   4141     1   108.4600466 328.025600
   4141   4139   4142     1   109.5600471 388.275200
   4143   4142   4145     1   108.7700466 392.459200
   4143   4142   4144     1   107.5800459 329.699200
   4144   4142   4145     1   108.7700466 392.459200
   4145   4147   4148     1   106.5500460 417.563200
   4150   4153   4154     1   109.8000471 387.438400
   4150   4153   4155     1   109.8000471 387.438400
   4151   4150   4153     1   109.5600471 388.275200
   4151   4150   4180     1   109.7800468 425.094400
   4151   4150   4152     1   108.4600466 328.025600
   4152   4150   4153     1   109.5600471 388.275200
   4152   4150   4180     1   109.7800468 425.094400
   4153   4156   4157     1   109.5600471 388.275200
   4153   4156   4158     1   109.5600471 388.275200
   4154   4153   4156     1   109.8000471 387.438400
   4154   4153   4155     1   107.5800459 329.699200
   4155   4153   4156     1   109.8000471 387.438400
   4157   4156   4159     1   109.8800469 414.216000
   4157   4156   4158     1   108.4600466 328.025600
   4158   4156   4159     1   109.8800469 414.216000
   4159   4160   4161     1   109.8800469 414.216000
   4159   4160   4162     1   109.8800469 414.216000
   4159   4170   4171     1   109.8800469 414.216000
   4159   4170   4172     1   109.8800469 414.216000
   4160   4163   4164     1   109.8000471 387.438400
   4160   4163   4165     1   109.8000471 387.438400
   4161   4160   4163     1   109.5600471 388.275200
   4161   4160   4162     1   108.4600466 328.025600
   4162   4160   4163     1   109.5600471 388.275200
   4164   4163   4166     1   108.7700466 392.459200
   4164   4163   4165     1   107.5800459 329.699200
   4165   4163   4166     1   108.7700466 392.459200
   4166   4168   4169     1   106.5500460 417.563200
   4170   4173   4174     1   109.8000471 387.438400
   4170   4173   4175     1   109.8000471 387.438400
   4171   4170   4173     1   109.5600471 388.275200
   4171   4170   4172     1   108.4600466 328.025600
   4172   4170   4173     1   109.5600471 388.275200
   4174   4173   4176     1   108.7700466 392.459200
   4174   4173   4175     1   107.5800459 329.699200
   4175   4173   4176     1   108.7700466 392.459200
   4176   4178   4179     1   106.5500460 417.563200
   4181   4184   4185     1   109.8000471 387.438400
   4181   4184   4186     1   109.8000471 387.438400
   4182   4181   4184     1   109.5600471 388.275200
   4182   4181   4211     1   109.7800468 425.094400
   4182   4181   4183     1   108.4600466 328.025600
   4183   4181   4184     1   109.5600471 388.275200
   4183   4181   4211     1   109.7800468 425.094400
   4184   4187   4188     1   109.5600471 388.275200
   4184   4187   4189     1   109.5600471 388.275200
   4185   4184   4187     1   109.8000471 387.438400
   4185   4184   4186     1   107.5800459 329.699200
   4186   4184   4187     1   109.8000471 387.438400
   4188   4187   4190     1   109.8800469 414.216000
   4188   4187   4189     1   108.4600466 328.025600
   4189   4187   4190     1   109.8800469 414.216000
   4190   4191   4192     1   109.8800469 414.216000
   4190   4191   4193     1   109.8800469 414.216000
   4190   4201   4202     1   109.8800469 414.216000
   4190   4201   4203     1   109.8800469 414.216000
   4191   4194   4195     1   109.8000471 387.438400
   4191   4194   4196     1   109.8000471 387.438400
   4192   4191   4194     1   109.5600471 388.275200
   4192   4191   4193     1   108.4600466 328.025600
   4193   4191   4194     1   109.5600471 388.275200
   4195   4194   4197     1   108.7700466 392.459200
   4195   4194   4196     1   107.5800459 329.699200
   4196   4194   4197     1   108.7700466 392.459200
   4197   4199   4200     1   106.5500460 417.563200
   4201   4204   4205     1   109.8000471 387.438400
   4201   4204   4206     1   109.8000471 387.438400
   4202   4201   4204     1   109.5600471 388.275200
   4202   4201   4203     1   108.4600466 328.025600
   4203   4201   4204     1   109.5600471 388.275200
   4205   4204   4207     1   108.7700466 392.459200
   4205   4204   4206     1   107.5800459 329.699200
   4206   4204   4207     1   108.7700466 392.459200
   4207   4209   4210     1   106.5500460 417.563200
   4212   4215   4216     1   109.8000471 387.438400
   4212   4215   4217     1   109.8000471 387.438400
   4213   4212   4215     1   109.5600471 388.275200
   4213   4212   4242     1   109.7800468 425.094400
   4213   4212   4214     1   108.4600466 328.025600
   4214   4212   4215     1   109.5600471 388.275200
   4214   4212   4242     1   109.7800468 425.094400
   4215   4218   4219     1   109.5600471 388.275200
   4215   4218   4220     1   109.5600471 388.275200
   4216   4215   4218     1   109.8000471 387.438400
   4216   4215   4217     1   107.5800459 329.699200
   4217   4215   4218     1   109.8000471 387.438400
   4219   4218   4221     1   109.8800469 414.216000
   4219   4218   4220     1   108.4600466 328.025600
   4220   4218   4221     1   109.8800469 414.216000
   4221   4222   4223     1   109.8800469 414.216000
   4221   4222   4224     1   109.8800469 414.216000
   4221   4232   4233     1   109.8800469 414.216000
   4221   4232   4234     1   109.8800469 414.216000
   4222   4225   4226     1   109.8000471 387.438400
   4222   4225   4227     1   109.8000471 387.438400
   4223   4222   4225     1   109.5600471 388.275200
   4223   4222   4224     1   108.4600466 328.025600
   4224   4222   4225     1   109.5600471 388.275200
   4226   4225   4228     1   108.7700466 392.459200
   4226   4225   4227     1   107.5800459 329.699200
   4227   4225   4228     1   108.7700466 392.459200
   4228   4230   4231     1   106.5500460 417.563200
   4232   4235   4236     1   109.8000471 387.438400
   4232   4235   4237     1   109.8000471 387.438400
   4233   4232   4235     1   109.5600471 388.275200
   4233   4232   4234     1   108.4600466 328.025600
   4234   4232   4235     1   109.5600471 388.275200
   4236   4235   4238     1   108.7700466 392.459200
   4236   4235   4237     1   107.5800459 329.699200
   4237   4235   4238     1   108.7700466 392.459200
   4238   4240   4241     1   106.5500460 417.563200
   4243   4246   4247     1   109.8000471 387.438400
   4243   4246   4248     1   109.8000471 387.438400
   4244   4243   4246     1   109.5600471 388.275200
   4244   4243   4273     1   109.7800468 425.094400
   4244   4243   4245     1   108.4600466 328.025600
   4245   4243   4246     1   109.5600471 388.275200
   4245   4243   4273     1   109.7800468 425.094400
   4246   4249   4250     1   109.5600471 388.275200
   4246   4249   4251     1   109.5600471 388.275200
   4247   4246   4249     1   109.8000471 387.438400
   4247   4246   4248     1   107.5800459 329.699200
   4248   4246   4249     1   109.8000471 387.438400
   4250   4249   4252     1   109.8800469 414.216000
   4250   4249   4251     1   108.4600466 328.025600
   4251   4249   4252     1   109.8800469 414.216000
   4252   4253   4254     1   109.8800469 414.216000
   4252   4253   4255     1   109.8800469 414.216000
   4252   4263   4264     1   109.8800469 414.216000
   4252   4263   4265     1   109.8800469 414.216000
   4253   4256   4257     1   109.8000471 387.438400
   4253   4256   4258     1   109.8000471 387.438400
   4254   4253   4256     1   109.5600471 388.275200
   4254   4253   4255     1   108.4600466 328.025600
   4255   4253   4256     1   109.5600471 388.275200
   4257   4256   4259     1   108.7700466 392.459200
   4257   4256   4258     1   107.5800459 329.699200
   4258   4256   4259     1   108.7700466 392.459200
   4259   4261   4262     1   106.5500460 417.563200
   4263   4266   4267     1   109.8000471 387.438400
   4263   4266   4268     1   109.8000471 387.438400
   4264   4263   4266     1   109.5600471 388.275200
   4264   4263   4265     1   108.4600466 328.025600
   4265   4263   4266     1   109.5600471 388.275200
   4267   4266   4269     1   108.7700466 392.459200
   4267   4266   4268     1   107.5800459 329.699200
   4268   4266   4269     1   108.7700466 392.459200
   4269   4271   4272     1   106.5500460 417.563200
   4274   4277   4278     1   109.8000471 387.438400
   4274   4277   4279     1   109.8000471 387.438400
   4275   4274   4277     1   109.5600471 388.275200
   4275   4274   4304     1   109.7800468 425.094400
   4275   4274   4276     1   108.4600466 328.025600
   4276   4274   4277     1   109.5600471 388.275200
   4276   4274   4304     1   109.7800468 425.094400
   4277   4280   4281     1   109.5600471 388.275200
   4277   4280   4282     1   109.5600471 388.275200
   4278   4277   4280     1   109.8000471 387.438400
   4278   4277   4279     1   107.5800459 329.699200
   4279   4277   4280     1   109.8000471 387.438400
   4281   4280   4283     1   109.8800469 414.216000
   4281   4280   4282     1   108.4600466 328.025600
   4282   4280   4283     1   109.8800469 414.216000
   4283   4284   4285     1   109.8800469 414.216000
   4283   4284   4286     1   109.8800469 414.216000
   4283   4294   4295     1   109.8800469 414.216000
   4283   4294   4296     1   109.8800469 414.216000
   4284   4287   4288     1   109.8000471 387.438400
   4284   4287   4289     1   109.8000471 387.438400
   4285   4284   4287     1   109.5600471 388.275200
   4285   4284   4286     1   108.4600466 328.025600
   4286   4284   4287     1   109.5600471 388.275200
   4288   4287   4290     1   108.7700466 392.459200
   4288   4287   4289     1   107.5800459 329.699200
   4289   4287   4290     1   108.7700466 392.459200
   4290   4292   4293     1   106.5500460 417.563200
   4294   4297   4298     1   109.8000471 387.438400
   4294   4297   4299     1   109.8000471 387.438400
   4295   4294   4297     1   109.5600471 388.275200
   4295   4294   4296     1   108.4600466 328.025600
   4296   4294   4297     1   109.5600471 388.275200
   4298   4297   4300     1   108.7700466 392.459200
   4298   4297   4299     1   107.5800459 329.699200
   4299   4297   4300     1   108.7700466 392.459200
   4300   4302   4303     1   106.5500460 417.563200
   4305   4308   4309     1   109.8000471 387.438400
   4305   4308   4310     1   109.8000471 387.438400
   4306   4305   4308     1   109.5600471 388.275200
   4306   4305   4335     1   109.7800468 425.094400
   4306   4305   4307     1   108.4600466 328.025600
   4307   4305   4308     1   109.5600471 388.275200
   4307   4305   4335     1   109.7800468 425.094400
   4308   4311   4312     1   109.5600471 388.275200
   4308   4311   4313     1   109.5600471 388.275200
   4309   4308   4311     1   109.8000471 387.438400
   4309   4308   4310     1   107.5800459 329.699200
   4310   4308   4311     1   109.8000471 387.438400
   4312   4311   4314     1   109.8800469 414.216000
   4312   4311   4313     1   108.4600466 328.025600
   4313   4311   4314     1   109.8800469 414.216000
   4314   4315   4316     1   109.8800469 414.216000
   4314   4315   4317     1   109.8800469 414.216000
   4314   4325   4326     1   109.8800469 414.216000
   4314   4325   4327     1   109.8800469 414.216000
   4315   4318   4319     1   109.8000471 387.438400
   4315   4318   4320     1   109.8000471 387.438400
   4316   4315   4318     1   109.5600471 388.275200
   4316   4315   4317     1   108.4600466 328.025600
   4317   4315   4318     1   109.5600471 388.275200
   4319   4318   4321     1   108.7700466 392.459200
   4319   4318   4320     1   107.5800459 329.699200
   4320   4318   4321     1   108.7700466 392.459200
   4321   4323   4324     1   106.5500460 417.563200
   4325   4328   4329     1   109.8000471 387.438400
   4325   4328   4330     1   109.8000471 387.438400
   4326   4325   4328     1   109.5600471 388.275200
   4326   4325   4327     1   108.4600466 328.025600
   4327   4325   4328     1   109.5600471 388.275200
   4329   4328   4331     1   108.7700466 392.459200
   4329   4328   4330     1   107.5800459 329.699200
   4330   4328   4331     1   108.7700466 392.459200
   4331   4333   4334     1   106.5500460 417.563200
   4336   4339   4340     1   109.8000471 387.438400
   4336   4339   4341     1   109.8000471 387.438400
   4337   4336   4339     1   109.5600471 388.275200
   4337   4336   4366     1   109.7800468 425.094400
   4337   4336   4338     1   108.4600466 328.025600
   4338   4336   4339     1   109.5600471 388.275200
   4338   4336   4366     1   109.7800468 425.094400
   4339   4342   4343     1   109.5600471 388.275200
   4339   4342   4344     1   109.5600471 388.275200
   4340   4339   4342     1   109.8000471 387.438400
   4340   4339   4341     1   107.5800459 329.699200
   4341   4339   4342     1   109.8000471 387.438400
   4343   4342   4345     1   109.8800469 414.216000
   4343   4342   4344     1   108.4600466 328.025600
   4344   4342   4345     1   109.8800469 414.216000
   4345   4346   4347     1   109.8800469 414.216000
   4345   4346   4348     1   109.8800469 414.216000
   4345   4356   4357     1   109.8800469 414.216000
   4345   4356   4358     1   109.8800469 414.216000
   4346   4349   4350     1   109.8000471 387.438400
   4346   4349   4351     1   109.8000471 387.438400
   4347   4346   4349     1   109.5600471 388.275200
   4347   4346   4348     1   108.4600466 328.025600
   4348   4346   4349     1   109.5600471 388.275200
   4350   4349   4352     1   108.7700466 392.459200
   4350   4349   4351     1   107.5800459 329.699200
   4351   4349   4352     1   108.7700466 392.459200
   4352   4354   4355     1   106.5500460 417.563200
   4356   4359   4360     1   109.8000471 387.438400
   4356   4359   4361     1   109.8000471 387.438400
   4357   4356   4359     1   109.5600471 388.275200
   4357   4356   4358     1   108.4600466 328.025600
   4358   4356   4359     1   109.5600471 388.275200
   4360   4359   4362     1   108.7700466 392.459200
   4360   4359   4361     1   107.5800459 329.699200
   4361   4359   4362     1   108.7700466 392.459200
   4362   4364   4365     1   106.5500460 417.563200
   4367   4370   4371     1   109.8000471 387.438400
   4367   4370   4372     1   109.8000471 387.438400
   4368   4367   4370     1   109.5600471 388.275200
   4368   4367   4397     1   109.7800468 425.094400
   4368   4367   4369     1   108.4600466 328.025600
   4369   4367   4370     1   109.5600471 388.275200
   4369   4367   4397     1   109.7800468 425.094400
   4370   4373   4374     1   109.5600471 388.275200
   4370   4373   4375     1   109.5600471 388.275200
   4371   4370   4373     1   109.8000471 387.438400
   4371   4370   4372     1   107.5800459 329.699200
   4372   4370   4373     1   109.8000471 387.438400
   4374   4373   4376     1   109.8800469 414.216000
   4374   4373   4375     1   108.4600466 328.025600
   4375   4373   4376     1   109.8800469 414.216000
   4376   4377   4378     1   109.8800469 414.216000
   4376   4377   4379     1   109.8800469 414.216000
   4376   4387   4388     1   109.8800469 414.216000
   4376   4387   4389     1   109.8800469 414.216000
   4377   4380   4381     1   109.8000471 387.438400
   4377   4380   4382     1   109.8000471 387.438400
   4378   4377   4380     1   109.5600471 388.275200
   4378   4377   4379     1   108.4600466 328.025600
   4379   4377   4380     1   109.5600471 388.275200
   4381   4380   4383     1   108.7700466 392.459200
   4381   4380   4382     1   107.5800459 329.699200
   4382   4380   4383     1   108.7700466 392.459200
   4383   4385   4386     1   106.5500460 417.563200
   4387   4390   4391     1   109.8000471 387.438400
   4387   4390   4392     1   109.8000471 387.438400
   4388   4387   4390     1   109.5600471 388.275200
   4388   4387   4389     1   108.4600466 328.025600
   4389   4387   4390     1   109.5600471 388.275200
   4391   4390   4393     1   108.7700466 392.459200
   4391   4390   4392     1   107.5800459 329.699200
   4392   4390   4393     1   108.7700466 392.459200
   4393   4395   4396     1   106.5500460 417.563200
   4398   4401   4402     1   109.8000471 387.438400
   4398   4401   4403     1   109.8000471 387.438400
   4399   4398   4401     1   109.5600471 388.275200
   4399   4398   4428     1   109.7800468 425.094400
   4399   4398   4400     1   108.4600466 328.025600
   4400   4398   4401     1   109.5600471 388.275200
   4400   4398   4428     1   109.7800468 425.094400
   4401   4404   4405     1   109.5600471 388.275200
   4401   4404   4406     1   109.5600471 388.275200
   4402   4401   4404     1   109.8000471 387.438400
   4402   4401   4403     1   107.5800459 329.699200
   4403   4401   4404     1   109.8000471 387.438400
   4405   4404   4407     1   109.8800469 414.216000
   4405   4404   4406     1   108.4600466 328.025600
   4406   4404   4407     1   109.8800469 414.216000
   4407   4408   4409     1   109.8800469 414.216000
   4407   4408   4410     1   109.8800469 414.216000
   4407   4418   4419     1   109.8800469 414.216000
   4407   4418   4420     1   109.8800469 414.216000
   4408   4411   4412     1   109.8000471 387.438400
   4408   4411   4413     1   109.8000471 387.438400
   4409   4408   4411     1   109.5600471 388.275200
   4409   4408   4410     1   108.4600466 328.025600
   4410   4408   4411     1   109.5600471 388.275200
   4412   4411   4414     1   108.7700466 392.459200
   4412   4411   4413     1   107.5800459 329.699200
   4413   4411   4414     1   108.7700466 392.459200
   4414   4416   4417     1   106.5500460 417.563200
   4418   4421   4422     1   109.8000471 387.438400
   4418   4421   4423     1   109.8000471 387.438400
   4419   4418   4421     1   109.5600471 388.275200
   4419   4418   4420     1   108.4600466 328.025600
   4420   4418   4421     1   109.5600471 388.275200
   4422   4421   4424     1   108.7700466 392.459200
   4422   4421   4423     1   107.5800459 329.699200
   4423   4421   4424     1   108.7700466 392.459200
   4424   4426   4427     1   106.5500460 417.563200
   4429   4432   4433     1   109.8000471 387.438400
   4429   4432   4434     1   109.8000471 387.438400
   4430   4429   4432     1   109.5600471 388.275200
   4430   4429   4459     1   109.7800468 425.094400
   4430   4429   4431     1   108.4600466 328.025600
   4431   4429   4432     1   109.5600471 388.275200
   4431   4429   4459     1   109.7800468 425.094400
   4432   4435   4436     1   109.5600471 388.275200
   4432   4435   4437     1   109.5600471 388.275200
   4433   4432   4435     1   109.8000471 387.438400
   4433   4432   4434     1   107.5800459 329.699200
   4434   4432   4435     1   109.8000471 387.438400
   4436   4435   4438     1   109.8800469 414.216000
   4436   4435   4437     1   108.4600466 328.025600
   4437   4435   4438     1   109.8800469 414.216000
   4438   4439   4440     1   109.8800469 414.216000
   4438   4439   4441     1   109.8800469 414.216000
   4438   4449   4450     1   109.8800469 414.216000
   4438   4449   4451     1   109.8800469 414.216000
   4439   4442   4443     1   109.8000471 387.438400
   4439   4442   4444     1   109.8000471 387.438400
   4440   4439   4442     1   109.5600471 388.275200
   4440   4439   4441     1   108.4600466 328.025600
   4441   4439   4442     1   109.5600471 388.275200
   4443   4442   4445     1   108.7700466 392.459200
   4443   4442   4444     1   107.5800459 329.699200
   4444   4442   4445     1   108.7700466 392.459200
   4445   4447   4448     1   106.5500460 417.563200
   4449   4452   4453     1   109.8000471 387.438400
   4449   4452   4454     1   109.8000471 387.438400
   4450   4449   4452     1   109.5600471 388.275200
   4450   4449   4451     1   108.4600466 328.025600
   4451   4449   4452     1   109.5600471 388.275200
   4453   4452   4455     1   108.7700466 392.459200
   4453   4452   4454     1   107.5800459 329.699200
   4454   4452   4455     1   108.7700466 392.459200
   4455   4457   4458     1   106.5500460 417.563200
   4460   4463   4464     1   109.8000471 387.438400
   4460   4463   4465     1   109.8000471 387.438400
   4461   4460   4463     1   109.5600471 388.275200
   4461   4460   4490     1   109.7800468 425.094400
   4461   4460   4462     1   108.4600466 328.025600
   4462   4460   4463     1   109.5600471 388.275200
   4462   4460   4490     1   109.7800468 425.094400
   4463   4466   4467     1   109.5600471 388.275200
   4463   4466   4468     1   109.5600471 388.275200
   4464   4463   4466     1   109.8000471 387.438400
   4464   4463   4465     1   107.5800459 329.699200
   4465   4463   4466     1   109.8000471 387.438400
   4467   4466   4469     1   109.8800469 414.216000
   4467   4466   4468     1   108.4600466 328.025600
   4468   4466   4469     1   109.8800469 414.216000
   4469   4470   4471     1   109.8800469 414.216000
   4469   4470   4472     1   109.8800469 414.216000
   4469   4480   4481     1   109.8800469 414.216000
   4469   4480   4482     1   109.8800469 414.216000
   4470   4473   4474     1   109.8000471 387.438400
   4470   4473   4475     1   109.8000471 387.438400
   4471   4470   4473     1   109.5600471 388.275200
   4471   4470   4472     1   108.4600466 328.025600
   4472   4470   4473     1   109.5600471 388.275200
   4474   4473   4476     1   108.7700466 392.459200
   4474   4473   4475     1   107.5800459 329.699200
   4475   4473   4476     1   108.7700466 392.459200
   4476   4478   4479     1   106.5500460 417.563200
   4480   4483   4484     1   109.8000471 387.438400
   4480   4483   4485     1   109.8000471 387.438400
   4481   4480   4483     1   109.5600471 388.275200
   4481   4480   4482     1   108.4600466 328.025600
   4482   4480   4483     1   109.5600471 388.275200
   4484   4483   4486     1   108.7700466 392.459200
   4484   4483   4485     1   107.5800459 329.699200
   4485   4483   4486     1   108.7700466 392.459200
   4486   4488   4489     1   106.5500460 417.563200
   4491   4494   4495     1   109.8000471 387.438400
   4491   4494   4496     1   109.8000471 387.438400
   4492   4491   4494     1   109.5600471 388.275200
   4492   4491   4521     1   109.7800468 425.094400
   4492   4491   4493     1   108.4600466 328.025600
   4493   4491   4494     1   109.5600471 388.275200
   4493   4491   4521     1   109.7800468 425.094400
   4494   4497   4498     1   109.5600471 388.275200
   4494   4497   4499     1   109.5600471 388.275200
   4495   4494   4497     1   109.8000471 387.438400
   4495   4494   4496     1   107.5800459 329.699200
   4496   4494   4497     1   109.8000471 387.438400
   4498   4497   4500     1   109.8800469 414.216000
   4498   4497   4499     1   108.4600466 328.025600
   4499   4497   4500     1   109.8800469 414.216000
   4500   4501   4502     1   109.8800469 414.216000
   4500   4501   4503     1   109.8800469 414.216000
   4500   4511   4512     1   109.8800469 414.216000
   4500   4511   4513     1   109.8800469 414.216000
   4501   4504   4505     1   109.8000471 387.438400
   4501   4504   4506     1   109.8000471 387.438400
   4502   4501   4504     1   109.5600471 388.275200
   4502   4501   4503     1   108.4600466 328.025600
   4503   4501   4504     1   109.5600471 388.275200
   4505   4504   4507     1   108.7700466 392.459200
   4505   4504   4506     1   107.5800459 329.699200
   4506   4504   4507     1   108.7700466 392.459200
   4507   4509   4510     1   106.5500460 417.563200
   4511   4514   4515     1   109.8000471 387.438400
   4511   4514   4516     1   109.8000471 387.438400
   4512   4511   4514     1   109.5600471 388.275200
   4512   4511   4513     1   108.4600466 328.025600
   4513   4511   4514     1   109.5600471 388.275200
   4515   4514   4517     1   108.7700466 392.459200
   4515   4514   4516     1   107.5800459 329.699200
   4516   4514   4517     1   108.7700466 392.459200
   4517   4519   4520     1   106.5500460 417.563200
   4522   4525   4526     1   109.8000471 387.438400
   4522   4525   4527     1   109.8000471 387.438400
   4523   4522   4525     1   109.5600471 388.275200
   4523   4522   4552     1   109.7800468 425.094400
   4523   4522   4524     1   108.4600466 328.025600
   4524   4522   4525     1   109.5600471 388.275200
   4524   4522   4552     1   109.7800468 425.094400
   4525   4528   4529     1   109.5600471 388.275200
   4525   4528   4530     1   109.5600471 388.275200
   4526   4525   4528     1   109.8000471 387.438400
   4526   4525   4527     1   107.5800459 329.699200
   4527   4525   4528     1   109.8000471 387.438400
   4529   4528   4531     1   109.8800469 414.216000
   4529   4528   4530     1   108.4600466 328.025600
   4530   4528   4531     1   109.8800469 414.216000
   4531   4532   4533     1   109.8800469 414.216000
   4531   4532   4534     1   109.8800469 414.216000
   4531   4542   4543     1   109.8800469 414.216000
   4531   4542   4544     1   109.8800469 414.216000
   4532   4535   4536     1   109.8000471 387.438400
   4532   4535   4537     1   109.8000471 387.438400
   4533   4532   4535     1   109.5600471 388.275200
   4533   4532   4534     1   108.4600466 328.025600
   4534   4532   4535     1   109.5600471 388.275200
   4536   4535   4538     1   108.7700466 392.459200
   4536   4535   4537     1   107.5800459 329.699200
   4537   4535   4538     1   108.7700466 392.459200
   4538   4540   4541     1   106.5500460 417.563200
   4542   4545   4546     1   109.8000471 387.438400
   4542   4545   4547     1   109.8000471 387.438400
   4543   4542   4545     1   109.5600471 388.275200
   4543   4542   4544     1   108.4600466 328.025600
   4544   4542   4545     1   109.5600471 388.275200
   4546   4545   4548     1   108.7700466 392.459200
   4546   4545   4547     1   107.5800459 329.699200
   4547   4545   4548     1   108.7700466 392.459200
   4548   4550   4551     1   106.5500460 417.563200
   4553   4556   4557     1   109.8000471 387.438400
   4553   4556   4558     1   109.8000471 387.438400
   4554   4553   4556     1   109.5600471 388.275200
   4554   4553   4583     1   109.7800468 425.094400
   4554   4553   4555     1   108.4600466 328.025600
   4555   4553   4556     1   109.5600471 388.275200
   4555   4553   4583     1   109.7800468 425.094400
   4556   4559   4560     1   109.5600471 388.275200
   4556   4559   4561     1   109.5600471 388.275200
   4557   4556   4559     1   109.8000471 387.438400
   4557   4556   4558     1   107.5800459 329.699200
   4558   4556   4559     1   109.8000471 387.438400
   4560   4559   4562     1   109.8800469 414.216000
   4560   4559   4561     1   108.4600466 328.025600
   4561   4559   4562     1   109.8800469 414.216000
   4562   4563   4564     1   109.8800469 414.216000
   4562   4563   4565     1   109.8800469 414.216000
   4562   4573   4574     1   109.8800469 414.216000
   4562   4573   4575     1   109.8800469 414.216000
   4563   4566   4567     1   109.8000471 387.438400
   4563   4566   4568     1   109.8000471 387.438400
   4564   4563   4566     1   109.5600471 388.275200
   4564   4563   4565     1   108.4600466 328.025600
   4565   4563   4566     1   109.5600471 388.275200
   4567   4566   4569     1   108.7700466 392.459200
   4567   4566   4568     1   107.5800459 329.699200
   4568   4566   4569     1   108.7700466 392.459200
   4569   4571   4572     1   106.5500460 417.563200
   4573   4576   4577     1   109.8000471 387.438400
   4573   4576   4578     1   109.8000471 387.438400
   4574   4573   4576     1   109.5600471 388.275200
   4574   4573   4575     1   108.4600466 328.025600
   4575   4573   4576     1   109.5600471 388.275200
   4577   4576   4579     1   108.7700466 392.459200
   4577   4576   4578     1   107.5800459 329.699200
   4578   4576   4579     1   108.7700466 392.459200
   4579   4581   4582     1   106.5500460 417.563200
   4584   4587   4588     1   109.8000471 387.438400
   4584   4587   4589     1   109.8000471 387.438400
   4585   4584   4587     1   109.5600471 388.275200
   4585   4584   4614     1   109.7800468 425.094400
   4585   4584   4586     1   108.4600466 328.025600
   4586   4584   4587     1   109.5600471 388.275200
   4586   4584   4614     1   109.7800468 425.094400
   4587   4590   4591     1   109.5600471 388.275200
   4587   4590   4592     1   109.5600471 388.275200
   4588   4587   4590     1   109.8000471 387.438400
   4588   4587   4589     1   107.5800459 329.699200
   4589   4587   4590     1   109.8000471 387.438400
   4591   4590   4593     1   109.8800469 414.216000
   4591   4590   4592     1   108.4600466 328.025600
   4592   4590   4593     1   109.8800469 414.216000
   4593   4594   4595     1   109.8800469 414.216000
   4593   4594   4596     1   109.8800469 414.216000
   4593   4604   4605     1   109.8800469 414.216000
   4593   4604   4606     1   109.8800469 414.216000
   4594   4597   4598     1   109.8000471 387.438400
   4594   4597   4599     1   109.8000471 387.438400
   4595   4594   4597     1   109.5600471 388.275200
   4595   4594   4596     1   108.4600466 328.025600
   4596   4594   4597     1   109.5600471 388.275200
   4598   4597   4600     1   108.7700466 392.459200
   4598   4597   4599     1   107.5800459 329.699200
   4599   4597   4600     1   108.7700466 392.459200
   4600   4602   4603     1   106.5500460 417.563200
   4604   4607   4608     1   109.8000471 387.438400
   4604   4607   4609     1   109.8000471 387.438400
   4605   4604   4607     1   109.5600471 388.275200
   4605   4604   4606     1   108.4600466 328.025600
   4606   4604   4607     1   109.5600471 388.275200
   4608   4607   4610     1   108.7700466 392.459200
   4608   4607   4609     1   107.5800459 329.699200
   4609   4607   4610     1   108.7700466 392.459200
   4610   4612   4613     1   106.5500460 417.563200
   4615   4618   4619     1   109.8000471 387.438400
   4615   4618   4620     1   109.8000471 387.438400
   4616   4615   4618     1   109.5600471 388.275200
   4616   4615   4645     1   109.7800468 425.094400
   4616   4615   4617     1   108.4600466 328.025600
   4617   4615   4618     1   109.5600471 388.275200
   4617   4615   4645     1   109.7800468 425.094400
   4618   4621   4622     1   109.5600471 388.275200
   4618   4621   4623     1   109.5600471 388.275200
   4619   4618   4621     1   109.8000471 387.438400
   4619   4618   4620     1   107.5800459 329.699200
   4620   4618   4621     1   109.8000471 387.438400
   4622   4621   4624     1   109.8800469 414.216000
   4622   4621   4623     1   108.4600466 328.025600
   4623   4621   4624     1   109.8800469 414.216000
   4624   4625   4626     1   109.8800469 414.216000
   4624   4625   4627     1   109.8800469 414.216000
   4624   4635   4636     1   109.8800469 414.216000
   4624   4635   4637     1   109.8800469 414.216000
   4625   4628   4629     1   109.8000471 387.438400
   4625   4628   4630     1   109.8000471 387.438400
   4626   4625   4628     1   109.5600471 388.275200
   4626   4625   4627     1   108.4600466 328.025600
   4627   4625   4628     1   109.5600471 388.275200
   4629   4628   4631     1   108.7700466 392.459200
   4629   4628   4630     1   107.5800459 329.699200
   4630   4628   4631     1   108.7700466 392.459200
   4631   4633   4634     1   106.5500460 417.563200
   4635   4638   4639     1   109.8000471 387.438400
   4635   4638   4640     1   109.8000471 387.438400
   4636   4635   4638     1   109.5600471 388.275200
   4636   4635   4637     1   108.4600466 328.025600
   4637   4635   4638     1   109.5600471 388.275200
   4639   4638   4641     1   108.7700466 392.459200
   4639   4638   4640     1   107.5800459 329.699200
   4640   4638   4641     1   108.7700466 392.459200
   4641   4643   4644     1   106.5500460 417.563200
   4646   4649   4650     1   109.8000471 387.438400
   4646   4649   4651     1   109.8000471 387.438400
   4647   4646   4649     1   109.5600471 388.275200
   4647   4646   4676     1   109.7800468 425.094400
   4647   4646   4648     1   108.4600466 328.025600
   4648   4646   4649     1   109.5600471 388.275200
   4648   4646   4676     1   109.7800468 425.094400
   4649   4652   4653     1   109.5600471 388.275200
   4649   4652   4654     1   109.5600471 388.275200
   4650   4649   4652     1   109.8000471 387.438400
   4650   4649   4651     1   107.5800459 329.699200
   4651   4649   4652     1   109.8000471 387.438400
   4653   4652   4655     1   109.8800469 414.216000
   4653   4652   4654     1   108.4600466 328.025600
   4654   4652   4655     1   109.8800469 414.216000
   4655   4656   4657     1   109.8800469 414.216000
   4655   4656   4658     1   109.8800469 414.216000
   4655   4666   4667     1   109.8800469 414.216000
   4655   4666   4668     1   109.8800469 414.216000
   4656   4659   4660     1   109.8000471 387.438400
   4656   4659   4661     1   109.8000471 387.438400
   4657   4656   4659     1   109.5600471 388.275200
   4657   4656   4658     1   108.4600466 328.025600
   4658   4656   4659     1   109.5600471 388.275200
   4660   4659   4662     1   108.7700466 392.459200
   4660   4659   4661     1   107.5800459 329.699200
   4661   4659   4662     1   108.7700466 392.459200
   4662   4664   4665     1   106.5500460 417.563200
   4666   4669   4670     1   109.8000471 387.438400
   4666   4669   4671     1   109.8000471 387.438400
   4667   4666   4669     1   109.5600471 388.275200
   4667   4666   4668     1   108.4600466 328.025600
   4668   4666   4669     1   109.5600471 388.275200
   4670   4669   4672     1   108.7700466 392.459200
   4670   4669   4671     1   107.5800459 329.699200
   4671   4669   4672     1   108.7700466 392.459200
   4672   4674   4675     1   106.5500460 417.563200
   4677   4680   4681     1   109.8000471 387.438400
   4677   4680   4682     1   109.8000471 387.438400
   4678   4677   4680     1   109.5600471 388.275200
   4678   4677   4707     1   109.7800468 425.094400
   4678   4677   4679     1   108.4600466 328.025600
   4679   4677   4680     1   109.5600471 388.275200
   4679   4677   4707     1   109.7800468 425.094400
   4680   4683   4684     1   109.5600471 388.275200
   4680   4683   4685     1   109.5600471 388.275200
   4681   4680   4683     1   109.8000471 387.438400
   4681   4680   4682     1   107.5800459 329.699200
   4682   4680   4683     1   109.8000471 387.438400
   4684   4683   4686     1   109.8800469 414.216000
   4684   4683   4685     1   108.4600466 328.025600
   4685   4683   4686     1   109.8800469 414.216000
   4686   4687   4688     1   109.8800469 414.216000
   4686   4687   4689     1   109.8800469 414.216000
   4686   4697   4698     1   109.8800469 414.216000
   4686   4697   4699     1   109.8800469 414.216000
   4687   4690   4691     1   109.8000471 387.438400
   4687   4690   4692     1   109.8000471 387.438400
   4688   4687   4690     1   109.5600471 388.275200
   4688   4687   4689     1   108.4600466 328.025600
   4689   4687   4690     1   109.5600471 388.275200
   4691   4690   4693     1   108.7700466 392.459200
   4691   4690   4692     1   107.5800459 329.699200
   4692   4690   4693     1   108.7700466 392.459200
   4693   4695   4696     1   106.5500460 417.563200
   4697   4700   4701     1   109.8000471 387.438400
   4697   4700   4702     1   109.8000471 387.438400
   4698   4697   4700     1   109.5600471 388.275200
   4698   4697   4699     1   108.4600466 328.025600
   4699   4697   4700     1   109.5600471 388.275200
   4701   4700   4703     1   108.7700466 392.459200
   4701   4700   4702     1   107.5800459 329.699200
   4702   4700   4703     1   108.7700466 392.459200
   4703   4705   4706     1   106.5500460 417.563200
   4708   4711   4712     1   109.8000471 387.438400
   4708   4711   4713     1   109.8000471 387.438400
   4709   4708   4711     1   109.5600471 388.275200
   4709   4708   4738     1   109.7800468 425.094400
   4709   4708   4710     1   108.4600466 328.025600
   4710   4708   4711     1   109.5600471 388.275200
   4710   4708   4738     1   109.7800468 425.094400
   4711   4714   4715     1   109.5600471 388.275200
   4711   4714   4716     1   109.5600471 388.275200
   4712   4711   4714     1   109.8000471 387.438400
   4712   4711   4713     1   107.5800459 329.699200
   4713   4711   4714     1   109.8000471 387.438400
   4715   4714   4717     1   109.8800469 414.216000
   4715   4714   4716     1   108.4600466 328.025600
   4716   4714   4717     1   109.8800469 414.216000
   4717   4718   4719     1   109.8800469 414.216000
   4717   4718   4720     1   109.8800469 414.216000
   4717   4728   4729     1   109.8800469 414.216000
   4717   4728   4730     1   109.8800469 414.216000
   4718   4721   4722     1   109.8000471 387.438400
   4718   4721   4723     1   109.8000471 387.438400
   4719   4718   4721     1   109.5600471 388.275200
   4719   4718   4720     1   108.4600466 328.025600
   4720   4718   4721     1   109.5600471 388.275200
   4722   4721   4724     1   108.7700466 392.459200
   4722   4721   4723     1   107.5800459 329.699200
   4723   4721   4724     1   108.7700466 392.459200
   4724   4726   4727     1   106.5500460 417.563200
   4728   4731   4732     1   109.8000471 387.438400
   4728   4731   4733     1   109.8000471 387.438400
   4729   4728   4731     1   109.5600471 388.275200
   4729   4728   4730     1   108.4600466 328.025600
   4730   4728   4731     1   109.5600471 388.275200
   4732   4731   4734     1   108.7700466 392.459200
   4732   4731   4733     1   107.5800459 329.699200
   4733   4731   4734     1   108.7700466 392.459200
   4734   4736   4737     1   106.5500460 417.563200
   4739   4742   4743     1   109.8000471 387.438400
   4739   4742   4744     1   109.8000471 387.438400
   4740   4739   4742     1   109.5600471 388.275200
   4740   4739   4769     1   109.7800468 425.094400
   4740   4739   4741     1   108.4600466 328.025600
   4741   4739   4742     1   109.5600471 388.275200
   4741   4739   4769     1   109.7800468 425.094400
   4742   4745   4746     1   109.5600471 388.275200
   4742   4745   4747     1   109.5600471 388.275200
   4743   4742   4745     1   109.8000471 387.438400
   4743   4742   4744     1   107.5800459 329.699200
   4744   4742   4745     1   109.8000471 387.438400
   4746   4745   4748     1   109.8800469 414.216000
   4746   4745   4747     1   108.4600466 328.025600
   4747   4745   4748     1   109.8800469 414.216000
   4748   4749   4750     1   109.8800469 414.216000
   4748   4749   4751     1   109.8800469 414.216000
   4748   4759   4760     1   109.8800469 414.216000
   4748   4759   4761     1   109.8800469 414.216000
   4749   4752   4753     1   109.8000471 387.438400
   4749   4752   4754     1   109.8000471 387.438400
   4750   4749   4752     1   109.5600471 388.275200
   4750   4749   4751     1   108.4600466 328.025600
   4751   4749   4752     1   109.5600471 388.275200
   4753   4752   4755     1   108.7700466 392.459200
   4753   4752   4754     1   107.5800459 329.699200
   4754   4752   4755     1   108.7700466 392.459200
   4755   4757   4758     1   106.5500460 417.563200
   4759   4762   4763     1   109.8000471 387.438400
   4759   4762   4764     1   109.8000471 387.438400
   4760   4759   4762     1   109.5600471 388.275200
   4760   4759   4761     1   108.4600466 328.025600
   4761   4759   4762     1   109.5600471 388.275200
   4763   4762   4765     1   108.7700466 392.459200
   4763   4762   4764     1   107.5800459 329.699200
   4764   4762   4765     1   108.7700466 392.459200
   4765   4767   4768     1   106.5500460 417.563200
   4770   4773   4774     1   109.8000471 387.438400
   4770   4773   4775     1   109.8000471 387.438400
   4771   4770   4773     1   109.5600471 388.275200
   4771   4770   4800     1   109.7800468 425.094400
   4771   4770   4772     1   108.4600466 328.025600
   4772   4770   4773     1   109.5600471 388.275200
   4772   4770   4800     1   109.7800468 425.094400
   4773   4776   4777     1   109.5600471 388.275200
   4773   4776   4778     1   109.5600471 388.275200
   4774   4773   4776     1   109.8000471 387.438400
   4774   4773   4775     1   107.5800459 329.699200
   4775   4773   4776     1   109.8000471 387.438400
   4777   4776   4779     1   109.8800469 414.216000
   4777   4776   4778     1   108.4600466 328.025600
   4778   4776   4779     1   109.8800469 414.216000
   4779   4780   4781     1   109.8800469 414.216000
   4779   4780   4782     1   109.8800469 414.216000
   4779   4790   4791     1   109.8800469 414.216000
   4779   4790   4792     1   109.8800469 414.216000
   4780   4783   4784     1   109.8000471 387.438400
   4780   4783   4785     1   109.8000471 387.438400
   4781   4780   4783     1   109.5600471 388.275200
   4781   4780   4782     1   108.4600466 328.025600
   4782   4780   4783     1   109.5600471 388.275200
   4784   4783   4786     1   108.7700466 392.459200
   4784   4783   4785     1   107.5800459 329.699200
   4785   4783   4786     1   108.7700466 392.459200
   4786   4788   4789     1   106.5500460 417.563200
   4790   4793   4794     1   109.8000471 387.438400
   4790   4793   4795     1   109.8000471 387.438400
   4791   4790   4793     1   109.5600471 388.275200
   4791   4790   4792     1   108.4600466 328.025600
   4792   4790   4793     1   109.5600471 388.275200
   4794   4793   4796     1   108.7700466 392.459200
   4794   4793   4795     1   107.5800459 329.699200
   4795   4793   4796     1   108.7700466 392.459200
   4796   4798   4799     1   106.5500460 417.563200
   4801   4804   4805     1   109.8000471 387.438400
   4801   4804   4806     1   109.8000471 387.438400
   4802   4801   4804     1   109.5600471 388.275200
   4802   4801   4831     1   109.7800468 425.094400
   4802   4801   4803     1   108.4600466 328.025600
   4803   4801   4804     1   109.5600471 388.275200
   4803   4801   4831     1   109.7800468 425.094400
   4804   4807   4808     1   109.5600471 388.275200
   4804   4807   4809     1   109.5600471 388.275200
   4805   4804   4807     1   109.8000471 387.438400
   4805   4804   4806     1   107.5800459 329.699200
   4806   4804   4807     1   109.8000471 387.438400
   4808   4807   4810     1   109.8800469 414.216000
   4808   4807   4809     1   108.4600466 328.025600
   4809   4807   4810     1   109.8800469 414.216000
   4810   4811   4812     1   109.8800469 414.216000
   4810   4811   4813     1   109.8800469 414.216000
   4810   4821   4822     1   109.8800469 414.216000
   4810   4821   4823     1   109.8800469 414.216000
   4811   4814   4815     1   109.8000471 387.438400
   4811   4814   4816     1   109.8000471 387.438400
   4812   4811   4814     1   109.5600471 388.275200
   4812   4811   4813     1   108.4600466 328.025600
   4813   4811   4814     1   109.5600471 388.275200
   4815   4814   4817     1   108.7700466 392.459200
   4815   4814   4816     1   107.5800459 329.699200
   4816   4814   4817     1   108.7700466 392.459200
   4817   4819   4820     1   106.5500460 417.563200
   4821   4824   4825     1   109.8000471 387.438400
   4821   4824   4826     1   109.8000471 387.438400
   4822   4821   4824     1   109.5600471 388.275200
   4822   4821   4823     1   108.4600466 328.025600
   4823   4821   4824     1   109.5600471 388.275200
   4825   4824   4827     1   108.7700466 392.459200
   4825   4824   4826     1   107.5800459 329.699200
   4826   4824   4827     1   108.7700466 392.459200
   4827   4829   4830     1   106.5500460 417.563200
   4832   4835   4836     1   109.8000471 387.438400
   4832   4835   4837     1   109.8000471 387.438400
   4833   4832   4835     1   109.5600471 388.275200
   4833   4832   4862     1   109.7800468 425.094400
   4833   4832   4834     1   108.4600466 328.025600
   4834   4832   4835     1   109.5600471 388.275200
   4834   4832   4862     1   109.7800468 425.094400
   4835   4838   4839     1   109.5600471 388.275200
   4835   4838   4840     1   109.5600471 388.275200
   4836   4835   4838     1   109.8000471 387.438400
   4836   4835   4837     1   107.5800459 329.699200
   4837   4835   4838     1   109.8000471 387.438400
   4839   4838   4841     1   109.8800469 414.216000
   4839   4838   4840     1   108.4600466 328.025600
   4840   4838   4841     1   109.8800469 414.216000
   4841   4842   4843     1   109.8800469 414.216000
   4841   4842   4844     1   109.8800469 414.216000
   4841   4852   4853     1   109.8800469 414.216000
   4841   4852   4854     1   109.8800469 414.216000
   4842   4845   4846     1   109.8000471 387.438400
   4842   4845   4847     1   109.8000471 387.438400
   4843   4842   4845     1   109.5600471 388.275200
   4843   4842   4844     1   108.4600466 328.025600
   4844   4842   4845     1   109.5600471 388.275200
   4846   4845   4848     1   108.7700466 392.459200
   4846   4845   4847     1   107.5800459 329.699200
   4847   4845   4848     1   108.7700466 392.459200
   4848   4850   4851     1   106.5500460 417.563200
   4852   4855   4856     1   109.8000471 387.438400
   4852   4855   4857     1   109.8000471 387.438400
   4853   4852   4855     1   109.5600471 388.275200
   4853   4852   4854     1   108.4600466 328.025600
   4854   4852   4855     1   109.5600471 388.275200
   4856   4855   4858     1   108.7700466 392.459200
   4856   4855   4857     1   107.5800459 329.699200
   4857   4855   4858     1   108.7700466 392.459200
   4858   4860   4861     1   106.5500460 417.563200
   4863   4866   4867     1   109.8000471 387.438400
   4863   4866   4868     1   109.8000471 387.438400
   4864   4863   4866     1   109.5600471 388.275200
   4864   4863   4893     1   109.7800468 425.094400
   4864   4863   4865     1   108.4600466 328.025600
   4865   4863   4866     1   109.5600471 388.275200
   4865   4863   4893     1   109.7800468 425.094400
   4866   4869   4870     1   109.5600471 388.275200
   4866   4869   4871     1   109.5600471 388.275200
   4867   4866   4869     1   109.8000471 387.438400
   4867   4866   4868     1   107.5800459 329.699200
   4868   4866   4869     1   109.8000471 387.438400
   4870   4869   4872     1   109.8800469 414.216000
   4870   4869   4871     1   108.4600466 328.025600
   4871   4869   4872     1   109.8800469 414.216000
   4872   4873   4874     1   109.8800469 414.216000
   4872   4873   4875     1   109.8800469 414.216000
   4872   4883   4884     1   109.8800469 414.216000
   4872   4883   4885     1   109.8800469 414.216000
   4873   4876   4877     1   109.8000471 387.438400
   4873   4876   4878     1   109.8000471 387.438400
   4874   4873   4876     1   109.5600471 388.275200
   4874   4873   4875     1   108.4600466 328.025600
   4875   4873   4876     1   109.5600471 388.275200
   4877   4876   4879     1   108.7700466 392.459200
   4877   4876   4878     1   107.5800459 329.699200
   4878   4876   4879     1   108.7700466 392.459200
   4879   4881   4882     1   106.5500460 417.563200
   4883   4886   4887     1   109.8000471 387.438400
   4883   4886   4888     1   109.8000471 387.438400
   4884   4883   4886     1   109.5600471 388.275200
   4884   4883   4885     1   108.4600466 328.025600
   4885   4883   4886     1   109.5600471 388.275200
   4887   4886   4889     1   108.7700466 392.459200
   4887   4886   4888     1   107.5800459 329.699200
   4888   4886   4889     1   108.7700466 392.459200
   4889   4891   4892     1   106.5500460 417.563200
   4894   4897   4898     1   109.8000471 387.438400
   4894   4897   4899     1   109.8000471 387.438400
   4895   4894   4897     1   109.5600471 388.275200
   4895   4894   4924     1   109.7800468 425.094400
   4895   4894   4896     1   108.4600466 328.025600
   4896   4894   4897     1   109.5600471 388.275200
   4896   4894   4924     1   109.7800468 425.094400
   4897   4900   4901     1   109.5600471 388.275200
   4897   4900   4902     1   109.5600471 388.275200
   4898   4897   4900     1   109.8000471 387.438400
   4898   4897   4899     1   107.5800459 329.699200
   4899   4897   4900     1   109.8000471 387.438400
   4901   4900   4903     1   109.8800469 414.216000
   4901   4900   4902     1   108.4600466 328.025600
   4902   4900   4903     1   109.8800469 414.216000
   4903   4904   4905     1   109.8800469 414.216000
   4903   4904   4906     1   109.8800469 414.216000
   4903   4914   4915     1   109.8800469 414.216000
   4903   4914   4916     1   109.8800469 414.216000
   4904   4907   4908     1   109.8000471 387.438400
   4904   4907   4909     1   109.8000471 387.438400
   4905   4904   4907     1   109.5600471 388.275200
   4905   4904   4906     1   108.4600466 328.025600
   4906   4904   4907     1   109.5600471 388.275200
   4908   4907   4910     1   108.7700466 392.459200
   4908   4907   4909     1   107.5800459 329.699200
   4909   4907   4910     1   108.7700466 392.459200
   4910   4912   4913     1   106.5500460 417.563200
   4914   4917   4918     1   109.8000471 387.438400
   4914   4917   4919     1   109.8000471 387.438400
   4915   4914   4917     1   109.5600471 388.275200
   4915   4914   4916     1   108.4600466 328.025600
   4916   4914   4917     1   109.5600471 388.275200
   4918   4917   4920     1   108.7700466 392.459200
   4918   4917   4919     1   107.5800459 329.699200
   4919   4917   4920     1   108.7700466 392.459200
   4920   4922   4923     1   106.5500460 417.563200
   4925   4928   4929     1   109.8000471 387.438400
   4925   4928   4930     1   109.8000471 387.438400
   4926   4925   4928     1   109.5600471 388.275200
   4926   4925   4955     1   109.7800468 425.094400
   4926   4925   4927     1   108.4600466 328.025600
   4927   4925   4928     1   109.5600471 388.275200
   4927   4925   4955     1   109.7800468 425.094400
   4928   4931   4932     1   109.5600471 388.275200
   4928   4931   4933     1   109.5600471 388.275200
   4929   4928   4931     1   109.8000471 387.438400
   4929   4928   4930     1   107.5800459 329.699200
   4930   4928   4931     1   109.8000471 387.438400
   4932   4931   4934     1   109.8800469 414.216000
   4932   4931   4933     1   108.4600466 328.025600
   4933   4931   4934     1   109.8800469 414.216000
   4934   4935   4936     1   109.8800469 414.216000
   4934   4935   4937     1   109.8800469 414.216000
   4934   4945   4946     1   109.8800469 414.216000
   4934   4945   4947     1   109.8800469 414.216000
   4935   4938   4939     1   109.8000471 387.438400
   4935   4938   4940     1   109.8000471 387.438400
   4936   4935   4938     1   109.5600471 388.275200
   4936   4935   4937     1   108.4600466 328.025600
   4937   4935   4938     1   109.5600471 388.275200
   4939   4938   4941     1   108.7700466 392.459200
   4939   4938   4940     1   107.5800459 329.699200
   4940   4938   4941     1   108.7700466 392.459200
   4941   4943   4944     1   106.5500460 417.563200
   4945   4948   4949     1   109.8000471 387.438400
   4945   4948   4950     1   109.8000471 387.438400
   4946   4945   4948     1   109.5600471 388.275200
   4946   4945   4947     1   108.4600466 328.025600
   4947   4945   4948     1   109.5600471 388.275200
   4949   4948   4951     1   108.7700466 392.459200
   4949   4948   4950     1   107.5800459 329.699200
   4950   4948   4951     1   108.7700466 392.459200
   4951   4953   4954     1   106.5500460 417.563200
   4956   4959   4960     1   109.8000471 387.438400
   4956   4959   4961     1   109.8000471 387.438400
   4957   4956   4959     1   109.5600471 388.275200
   4957   4956   4986     1   109.7800468 425.094400
   4957   4956   4958     1   108.4600466 328.025600
   4958   4956   4959     1   109.5600471 388.275200
   4958   4956   4986     1   109.7800468 425.094400
   4959   4962   4963     1   109.5600471 388.275200
   4959   4962   4964     1   109.5600471 388.275200
   4960   4959   4962     1   109.8000471 387.438400
   4960   4959   4961     1   107.5800459 329.699200
   4961   4959   4962     1   109.8000471 387.438400
   4963   4962   4965     1   109.8800469 414.216000
   4963   4962   4964     1   108.4600466 328.025600
   4964   4962   4965     1   109.8800469 414.216000
   4965   4966   4967     1   109.8800469 414.216000
   4965   4966   4968     1   109.8800469 414.216000
   4965   4976   4977     1   109.8800469 414.216000
   4965   4976   4978     1   109.8800469 414.216000
   4966   4969   4970     1   109.8000471 387.438400
   4966   4969   4971     1   109.8000471 387.438400
   4967   4966   4969     1   109.5600471 388.275200
   4967   4966   4968     1   108.4600466 328.025600
   4968   4966   4969     1   109.5600471 388.275200
   4970   4969   4972     1   108.7700466 392.459200
   4970   4969   4971     1   107.5800459 329.699200
   4971   4969   4972     1   108.7700466 392.459200
   4972   4974   4975     1   106.5500460 417.563200
   4976   4979   4980     1   109.8000471 387.438400
   4976   4979   4981     1   109.8000471 387.438400
   4977   4976   4979     1   109.5600471 388.275200
   4977   4976   4978     1   108.4600466 328.025600
   4978   4976   4979     1   109.5600471 388.275200
   4980   4979   4982     1   108.7700466 392.459200
   4980   4979   4981     1   107.5800459 329.699200
   4981   4979   4982     1   108.7700466 392.459200
   4982   4984   4985     1   106.5500460 417.563200
   4987   4990   4991     1   109.8000471 387.438400
   4987   4990   4992     1   109.8000471 387.438400
   4988   4987   4990     1   109.5600471 388.275200
   4988   4987   5017     1   109.7800468 425.094400
   4988   4987   4989     1   108.4600466 328.025600
   4989   4987   4990     1   109.5600471 388.275200
   4989   4987   5017     1   109.7800468 425.094400
   4990   4993   4994     1   109.5600471 388.275200
   4990   4993   4995     1   109.5600471 388.275200
   4991   4990   4993     1   109.8000471 387.438400
   4991   4990   4992     1   107.5800459 329.699200
   4992   4990   4993     1   109.8000471 387.438400
   4994   4993   4996     1   109.8800469 414.216000
   4994   4993   4995     1   108.4600466 328.025600
   4995   4993   4996     1   109.8800469 414.216000
   4996   4997   4998     1   109.8800469 414.216000
   4996   4997   4999     1   109.8800469 414.216000
   4996   5007   5008     1   109.8800469 414.216000
   4996   5007   5009     1   109.8800469 414.216000
   4997   5000   5001     1   109.8000471 387.438400
   4997   5000   5002     1   109.8000471 387.438400
   4998   4997   5000     1   109.5600471 388.275200
   4998   4997   4999     1   108.4600466 328.025600
   4999   4997   5000     1   109.5600471 388.275200
   5001   5000   5003     1   108.7700466 392.459200
   5001   5000   5002     1   107.5800459 329.699200
   5002   5000   5003     1   108.7700466 392.459200
   5003   5005   5006     1   106.5500460 417.563200
   5007   5010   5011     1   109.8000471 387.438400
   5007   5010   5012     1   109.8000471 387.438400
   5008   5007   5010     1   109.5600471 388.275200
   5008   5007   5009     1   108.4600466 328.025600
   5009   5007   5010     1   109.5600471 388.275200
   5011   5010   5013     1   108.7700466 392.459200
   5011   5010   5012     1   107.5800459 329.699200
   5012   5010   5013     1   108.7700466 392.459200
   5013   5015   5016     1   106.5500460 417.563200
   5018   5021   5022     1   109.8000471 387.438400
   5018   5021   5023     1   109.8000471 387.438400
   5019   5018   5021     1   109.5600471 388.275200
   5019   5018   5048     1   109.7800468 425.094400
   5019   5018   5020     1   108.4600466 328.025600
   5020   5018   5021     1   109.5600471 388.275200
   5020   5018   5048     1   109.7800468 425.094400
   5021   5024   5025     1   109.5600471 388.275200
   5021   5024   5026     1   109.5600471 388.275200
   5022   5021   5024     1   109.8000471 387.438400
   5022   5021   5023     1   107.5800459 329.699200
   5023   5021   5024     1   109.8000471 387.438400
   5025   5024   5027     1   109.8800469 414.216000
   5025   5024   5026     1   108.4600466 328.025600
   5026   5024   5027     1   109.8800469 414.216000
   5027   5028   5029     1   109.8800469 414.216000
   5027   5028   5030     1   109.8800469 414.216000
   5027   5038   5039     1   109.8800469 414.216000
   5027   5038   5040     1   109.8800469 414.216000
   5028   5031   5032     1   109.8000471 387.438400
   5028   5031   5033     1   109.8000471 387.438400
   5029   5028   5031     1   109.5600471 388.275200
   5029   5028   5030     1   108.4600466 328.025600
   5030   5028   5031     1   109.5600471 388.275200
   5032   5031   5034     1   108.7700466 392.459200
   5032   5031   5033     1   107.5800459 329.699200
   5033   5031   5034     1   108.7700466 392.459200
   5034   5036   5037     1   106.5500460 417.563200
   5038   5041   5042     1   109.8000471 387.438400
   5038   5041   5043     1   109.8000471 387.438400
   5039   5038   5041     1   109.5600471 388.275200
   5039   5038   5040     1   108.4600466 328.025600
   5040   5038   5041     1   109.5600471 388.275200
   5042   5041   5044     1   108.7700466 392.459200
   5042   5041   5043     1   107.5800459 329.699200
   5043   5041   5044     1   108.7700466 392.459200
   5044   5046   5047     1   106.5500460 417.563200
   5049   5052   5053     1   109.8000471 387.438400
   5049   5052   5054     1   109.8000471 387.438400
   5050   5049   5052     1   109.5600471 388.275200
   5050   5049   5079     1   109.7800468 425.094400
   5050   5049   5051     1   108.4600466 328.025600
   5051   5049   5052     1   109.5600471 388.275200
   5051   5049   5079     1   109.7800468 425.094400
   5052   5055   5056     1   109.5600471 388.275200
   5052   5055   5057     1   109.5600471 388.275200
   5053   5052   5055     1   109.8000471 387.438400
   5053   5052   5054     1   107.5800459 329.699200
   5054   5052   5055     1   109.8000471 387.438400
   5056   5055   5058     1   109.8800469 414.216000
   5056   5055   5057     1   108.4600466 328.025600
   5057   5055   5058     1   109.8800469 414.216000
   5058   5059   5060     1   109.8800469 414.216000
   5058   5059   5061     1   109.8800469 414.216000
   5058   5069   5070     1   109.8800469 414.216000
   5058   5069   5071     1   109.8800469 414.216000
   5059   5062   5063     1   109.8000471 387.438400
   5059   5062   5064     1   109.8000471 387.438400
   5060   5059   5062     1   109.5600471 388.275200
   5060   5059   5061     1   108.4600466 328.025600
   5061   5059   5062     1   109.5600471 388.275200
   5063   5062   5065     1   108.7700466 392.459200
   5063   5062   5064     1   107.5800459 329.699200
   5064   5062   5065     1   108.7700466 392.459200
   5065   5067   5068     1   106.5500460 417.563200
   5069   5072   5073     1   109.8000471 387.438400
   5069   5072   5074     1   109.8000471 387.438400
   5070   5069   5072     1   109.5600471 388.275200
   5070   5069   5071     1   108.4600466 328.025600
   5071   5069   5072     1   109.5600471 388.275200
   5073   5072   5075     1   108.7700466 392.459200
   5073   5072   5074     1   107.5800459 329.699200
   5074   5072   5075     1   108.7700466 392.459200
   5075   5077   5078     1   106.5500460 417.563200
   5080   5083   5084     1   109.8000471 387.438400
   5080   5083   5085     1   109.8000471 387.438400
   5081   5080   5083     1   109.5600471 388.275200
   5081   5080   5110     1   109.7800468 425.094400
   5081   5080   5082     1   108.4600466 328.025600
   5082   5080   5083     1   109.5600471 388.275200
   5082   5080   5110     1   109.7800468 425.094400
   5083   5086   5087     1   109.5600471 388.275200
   5083   5086   5088     1   109.5600471 388.275200
   5084   5083   5086     1   109.8000471 387.438400
   5084   5083   5085     1   107.5800459 329.699200
   5085   5083   5086     1   109.8000471 387.438400
   5087   5086   5089     1   109.8800469 414.216000
   5087   5086   5088     1   108.4600466 328.025600
   5088   5086   5089     1   109.8800469 414.216000
   5089   5090   5091     1   109.8800469 414.216000
   5089   5090   5092     1   109.8800469 414.216000
   5089   5100   5101     1   109.8800469 414.216000
   5089   5100   5102     1   109.8800469 414.216000
   5090   5093   5094     1   109.8000471 387.438400
   5090   5093   5095     1   109.8000471 387.438400
   5091   5090   5093     1   109.5600471 388.275200
   5091   5090   5092     1   108.4600466 328.025600
   5092   5090   5093     1   109.5600471 388.275200
   5094   5093   5096     1   108.7700466 392.459200
   5094   5093   5095     1   107.5800459 329.699200
   5095   5093   5096     1   108.7700466 392.459200
   5096   5098   5099     1   106.5500460 417.563200
   5100   5103   5104     1   109.8000471 387.438400
   5100   5103   5105     1   109.8000471 387.438400
   5101   5100   5103     1   109.5600471 388.275200
   5101   5100   5102     1   108.4600466 328.025600
   5102   5100   5103     1   109.5600471 388.275200
   5104   5103   5106     1   108.7700466 392.459200
   5104   5103   5105     1   107.5800459 329.699200
   5105   5103   5106     1   108.7700466 392.459200
   5106   5108   5109     1   106.5500460 417.563200
   5111   5114   5115     1   109.8000471 387.438400
   5111   5114   5116     1   109.8000471 387.438400
   5112   5111   5114     1   109.5600471 388.275200
   5112   5111   5141     1   109.7800468 425.094400
   5112   5111   5113     1   108.4600466 328.025600
   5113   5111   5114     1   109.5600471 388.275200
   5113   5111   5141     1   109.7800468 425.094400
   5114   5117   5118     1   109.5600471 388.275200
   5114   5117   5119     1   109.5600471 388.275200
   5115   5114   5117     1   109.8000471 387.438400
   5115   5114   5116     1   107.5800459 329.699200
   5116   5114   5117     1   109.8000471 387.438400
   5118   5117   5120     1   109.8800469 414.216000
   5118   5117   5119     1   108.4600466 328.025600
   5119   5117   5120     1   109.8800469 414.216000
   5120   5121   5122     1   109.8800469 414.216000
   5120   5121   5123     1   109.8800469 414.216000
   5120   5131   5132     1   109.8800469 414.216000
   5120   5131   5133     1   109.8800469 414.216000
   5121   5124   5125     1   109.8000471 387.438400
   5121   5124   5126     1   109.8000471 387.438400
   5122   5121   5124     1   109.5600471 388.275200
   5122   5121   5123     1   108.4600466 328.025600
   5123   5121   5124     1   109.5600471 388.275200
   5125   5124   5127     1   108.7700466 392.459200
   5125   5124   5126     1   107.5800459 329.699200
   5126   5124   5127     1   108.7700466 392.459200
   5127   5129   5130     1   106.5500460 417.563200
   5131   5134   5135     1   109.8000471 387.438400
   5131   5134   5136     1   109.8000471 387.438400
   5132   5131   5134     1   109.5600471 388.275200
   5132   5131   5133     1   108.4600466 328.025600
   5133   5131   5134     1   109.5600471 388.275200
   5135   5134   5137     1   108.7700466 392.459200
   5135   5134   5136     1   107.5800459 329.699200
   5136   5134   5137     1   108.7700466 392.459200
   5137   5139   5140     1   106.5500460 417.563200
   5142   5145   5146     1   109.8000471 387.438400
   5142   5145   5147     1   109.8000471 387.438400
   5143   5142   5145     1   109.5600471 388.275200
   5143   5142   5172     1   109.7800468 425.094400
   5143   5142   5144     1   108.4600466 328.025600
   5144   5142   5145     1   109.5600471 388.275200
   5144   5142   5172     1   109.7800468 425.094400
   5145   5148   5149     1   109.5600471 388.275200
   5145   5148   5150     1   109.5600471 388.275200
   5146   5145   5148     1   109.8000471 387.438400
   5146   5145   5147     1   107.5800459 329.699200
   5147   5145   5148     1   109.8000471 387.438400
   5149   5148   5151     1   109.8800469 414.216000
   5149   5148   5150     1   108.4600466 328.025600
   5150   5148   5151     1   109.8800469 414.216000
   5151   5152   5153     1   109.8800469 414.216000
   5151   5152   5154     1   109.8800469 414.216000
   5151   5162   5163     1   109.8800469 414.216000
   5151   5162   5164     1   109.8800469 414.216000
   5152   5155   5156     1   109.8000471 387.438400
   5152   5155   5157     1   109.8000471 387.438400
   5153   5152   5155     1   109.5600471 388.275200
   5153   5152   5154     1   108.4600466 328.025600
   5154   5152   5155     1   109.5600471 388.275200
   5156   5155   5158     1   108.7700466 392.459200
   5156   5155   5157     1   107.5800459 329.699200
   5157   5155   5158     1   108.7700466 392.459200
   5158   5160   5161     1   106.5500460 417.563200
   5162   5165   5166     1   109.8000471 387.438400
   5162   5165   5167     1   109.8000471 387.438400
   5163   5162   5165     1   109.5600471 388.275200
   5163   5162   5164     1   108.4600466 328.025600
   5164   5162   5165     1   109.5600471 388.275200
   5166   5165   5168     1   108.7700466 392.459200
   5166   5165   5167     1   107.5800459 329.699200
   5167   5165   5168     1   108.7700466 392.459200
   5168   5170   5171     1   106.5500460 417.563200
   5173   5176   5177     1   109.8000471 387.438400
   5173   5176   5178     1   109.8000471 387.438400
   5174   5173   5176     1   109.5600471 388.275200
   5174   5173   5203     1   109.7800468 425.094400
   5174   5173   5175     1   108.4600466 328.025600
   5175   5173   5176     1   109.5600471 388.275200
   5175   5173   5203     1   109.7800468 425.094400
   5176   5179   5180     1   109.5600471 388.275200
   5176   5179   5181     1   109.5600471 388.275200
   5177   5176   5179     1   109.8000471 387.438400
   5177   5176   5178     1   107.5800459 329.699200
   5178   5176   5179     1   109.8000471 387.438400
   5180   5179   5182     1   109.8800469 414.216000
   5180   5179   5181     1   108.4600466 328.025600
   5181   5179   5182     1   109.8800469 414.216000
   5182   5183   5184     1   109.8800469 414.216000
   5182   5183   5185     1   109.8800469 414.216000
   5182   5193   5194     1   109.8800469 414.216000
   5182   5193   5195     1   109.8800469 414.216000
   5183   5186   5187     1   109.8000471 387.438400
   5183   5186   5188     1   109.8000471 387.438400
   5184   5183   5186     1   109.5600471 388.275200
   5184   5183   5185     1   108.4600466 328.025600
   5185   5183   5186     1   109.5600471 388.275200
   5187   5186   5189     1   108.7700466 392.459200
   5187   5186   5188     1   107.5800459 329.699200
   5188   5186   5189     1   108.7700466 392.459200
   5189   5191   5192     1   106.5500460 417.563200
   5193   5196   5197     1   109.8000471 387.438400
   5193   5196   5198     1   109.8000471 387.438400
   5194   5193   5196     1   109.5600471 388.275200
   5194   5193   5195     1   108.4600466 328.025600
   5195   5193   5196     1   109.5600471 388.275200
   5197   5196   5199     1   108.7700466 392.459200
   5197   5196   5198     1   107.5800459 329.699200
   5198   5196   5199     1   108.7700466 392.459200
   5199   5201   5202     1   106.5500460 417.563200
   5204   5207   5208     1   109.8000471 387.438400
   5204   5207   5209     1   109.8000471 387.438400
   5205   5204   5207     1   109.5600471 388.275200
   5205   5204   5234     1   109.7800468 425.094400
   5205   5204   5206     1   108.4600466 328.025600
   5206   5204   5207     1   109.5600471 388.275200
   5206   5204   5234     1   109.7800468 425.094400
   5207   5210   5211     1   109.5600471 388.275200
   5207   5210   5212     1   109.5600471 388.275200
   5208   5207   5210     1   109.8000471 387.438400
   5208   5207   5209     1   107.5800459 329.699200
   5209   5207   5210     1   109.8000471 387.438400
   5211   5210   5213     1   109.8800469 414.216000
   5211   5210   5212     1   108.4600466 328.025600
   5212   5210   5213     1   109.8800469 414.216000
   5213   5214   5215     1   109.8800469 414.216000
   5213   5214   5216     1   109.8800469 414.216000
   5213   5224   5225     1   109.8800469 414.216000
   5213   5224   5226     1   109.8800469 414.216000
   5214   5217   5218     1   109.8000471 387.438400
   5214   5217   5219     1   109.8000471 387.438400
   5215   5214   5217     1   109.5600471 388.275200
   5215   5214   5216     1   108.4600466 328.025600
   5216   5214   5217     1   109.5600471 388.275200
   5218   5217   5220     1   108.7700466 392.459200
   5218   5217   5219     1   107.5800459 329.699200
   5219   5217   5220     1   108.7700466 392.459200
   5220   5222   5223     1   106.5500460 417.563200
   5224   5227   5228     1   109.8000471 387.438400
   5224   5227   5229     1   109.8000471 387.438400
   5225   5224   5227     1   109.5600471 388.275200
   5225   5224   5226     1   108.4600466 328.025600
   5226   5224   5227     1   109.5600471 388.275200
   5228   5227   5230     1   108.7700466 392.459200
   5228   5227   5229     1   107.5800459 329.699200
   5229   5227   5230     1   108.7700466 392.459200
   5230   5232   5233     1   106.5500460 417.563200
   5235   5238   5239     1   109.8000471 387.438400
   5235   5238   5240     1   109.8000471 387.438400
   5236   5235   5238     1   109.5600471 388.275200
   5236   5235   5265     1   109.7800468 425.094400
   5236   5235   5237     1   108.4600466 328.025600
   5237   5235   5238     1   109.5600471 388.275200
   5237   5235   5265     1   109.7800468 425.094400
   5238   5241   5242     1   109.5600471 388.275200
   5238   5241   5243     1   109.5600471 388.275200
   5239   5238   5241     1   109.8000471 387.438400
   5239   5238   5240     1   107.5800459 329.699200
   5240   5238   5241     1   109.8000471 387.438400
   5242   5241   5244     1   109.8800469 414.216000
   5242   5241   5243     1   108.4600466 328.025600
   5243   5241   5244     1   109.8800469 414.216000
   5244   5245   5246     1   109.8800469 414.216000
   5244   5245   5247     1   109.8800469 414.216000
   5244   5255   5256     1   109.8800469 414.216000
   5244   5255   5257     1   109.8800469 414.216000
   5245   5248   5249     1   109.8000471 387.438400
   5245   5248   5250     1   109.8000471 387.438400
   5246   5245   5248     1   109.5600471 388.275200
   5246   5245   5247     1   108.4600466 328.025600
   5247   5245   5248     1   109.5600471 388.275200
   5249   5248   5251     1   108.7700466 392.459200
   5249   5248   5250     1   107.5800459 329.699200
   5250   5248   5251     1   108.7700466 392.459200
   5251   5253   5254     1   106.5500460 417.563200
   5255   5258   5259     1   109.8000471 387.438400
   5255   5258   5260     1   109.8000471 387.438400
   5256   5255   5258     1   109.5600471 388.275200
   5256   5255   5257     1   108.4600466 328.025600
   5257   5255   5258     1   109.5600471 388.275200
   5259   5258   5261     1   108.7700466 392.459200
   5259   5258   5260     1   107.5800459 329.699200
   5260   5258   5261     1   108.7700466 392.459200
   5261   5263   5264     1   106.5500460 417.563200
   5266   5269   5270     1   109.8000471 387.438400
   5266   5269   5271     1   109.8000471 387.438400
   5267   5266   5269     1   109.5600471 388.275200
   5267   5266   5296     1   109.7800468 425.094400
   5267   5266   5268     1   108.4600466 328.025600
   5268   5266   5269     1   109.5600471 388.275200
   5268   5266   5296     1   109.7800468 425.094400
   5269   5272   5273     1   109.5600471 388.275200
   5269   5272   5274     1   109.5600471 388.275200
   5270   5269   5272     1   109.8000471 387.438400
   5270   5269   5271     1   107.5800459 329.699200
   5271   5269   5272     1   109.8000471 387.438400
   5273   5272   5275     1   109.8800469 414.216000
   5273   5272   5274     1   108.4600466 328.025600
   5274   5272   5275     1   109.8800469 414.216000
   5275   5276   5277     1   109.8800469 414.216000
   5275   5276   5278     1   109.8800469 414.216000
   5275   5286   5287     1   109.8800469 414.216000
   5275   5286   5288     1   109.8800469 414.216000
   5276   5279   5280     1   109.8000471 387.438400
   5276   5279   5281     1   109.8000471 387.438400
   5277   5276   5279     1   109.5600471 388.275200
   5277   5276   5278     1   108.4600466 328.025600
   5278   5276   5279     1   109.5600471 388.275200
   5280   5279   5282     1   108.7700466 392.459200
   5280   5279   5281     1   107.5800459 329.699200
   5281   5279   5282     1   108.7700466 392.459200
   5282   5284   5285     1   106.5500460 417.563200
   5286   5289   5290     1   109.8000471 387.438400
   5286   5289   5291     1   109.8000471 387.438400
   5287   5286   5289     1   109.5600471 388.275200
   5287   5286   5288     1   108.4600466 328.025600
   5288   5286   5289     1   109.5600471 388.275200
   5290   5289   5292     1   108.7700466 392.459200
   5290   5289   5291     1   107.5800459 329.699200
   5291   5289   5292     1   108.7700466 392.459200
   5292   5294   5295     1   106.5500460 417.563200
   5297   5300   5301     1   109.8000471 387.438400
   5297   5300   5302     1   109.8000471 387.438400
   5298   5297   5300     1   109.5600471 388.275200
   5298   5297   5327     1   109.7800468 425.094400
   5298   5297   5299     1   108.4600466 328.025600
   5299   5297   5300     1   109.5600471 388.275200
   5299   5297   5327     1   109.7800468 425.094400
   5300   5303   5304     1   109.5600471 388.275200
   5300   5303   5305     1   109.5600471 388.275200
   5301   5300   5303     1   109.8000471 387.438400
   5301   5300   5302     1   107.5800459 329.699200
   5302   5300   5303     1   109.8000471 387.438400
   5304   5303   5306     1   109.8800469 414.216000
   5304   5303   5305     1   108.4600466 328.025600
   5305   5303   5306     1   109.8800469 414.216000
   5306   5307   5308     1   109.8800469 414.216000
   5306   5307   5309     1   109.8800469 414.216000
   5306   5317   5318     1   109.8800469 414.216000
   5306   5317   5319     1   109.8800469 414.216000
   5307   5310   5311     1   109.8000471 387.438400
   5307   5310   5312     1   109.8000471 387.438400
   5308   5307   5310     1   109.5600471 388.275200
   5308   5307   5309     1   108.4600466 328.025600
   5309   5307   5310     1   109.5600471 388.275200
   5311   5310   5313     1   108.7700466 392.459200
   5311   5310   5312     1   107.5800459 329.699200
   5312   5310   5313     1   108.7700466 392.459200
   5313   5315   5316     1   106.5500460 417.563200
   5317   5320   5321     1   109.8000471 387.438400
   5317   5320   5322     1   109.8000471 387.438400
   5318   5317   5320     1   109.5600471 388.275200
   5318   5317   5319     1   108.4600466 328.025600
   5319   5317   5320     1   109.5600471 388.275200
   5321   5320   5323     1   108.7700466 392.459200
   5321   5320   5322     1   107.5800459 329.699200
   5322   5320   5323     1   108.7700466 392.459200
   5323   5325   5326     1   106.5500460 417.563200
   5328   5331   5332     1   109.8000471 387.438400
   5328   5331   5333     1   109.8000471 387.438400
   5329   5328   5331     1   109.5600471 388.275200
   5329   5328   5358     1   109.7800468 425.094400
   5329   5328   5330     1   108.4600466 328.025600
   5330   5328   5331     1   109.5600471 388.275200
   5330   5328   5358     1   109.7800468 425.094400
   5331   5334   5335     1   109.5600471 388.275200
   5331   5334   5336     1   109.5600471 388.275200
   5332   5331   5334     1   109.8000471 387.438400
   5332   5331   5333     1   107.5800459 329.699200
   5333   5331   5334     1   109.8000471 387.438400
   5335   5334   5337     1   109.8800469 414.216000
   5335   5334   5336     1   108.4600466 328.025600
   5336   5334   5337     1   109.8800469 414.216000
   5337   5338   5339     1   109.8800469 414.216000
   5337   5338   5340     1   109.8800469 414.216000
   5337   5348   5349     1   109.8800469 414.216000
   5337   5348   5350     1   109.8800469 414.216000
   5338   5341   5342     1   109.8000471 387.438400
   5338   5341   5343     1   109.8000471 387.438400
   5339   5338   5341     1   109.5600471 388.275200
   5339   5338   5340     1   108.4600466 328.025600
   5340   5338   5341     1   109.5600471 388.275200
   5342   5341   5344     1   108.7700466 392.459200
   5342   5341   5343     1   107.5800459 329.699200
   5343   5341   5344     1   108.7700466 392.459200
   5344   5346   5347     1   106.5500460 417.563200
   5348   5351   5352     1   109.8000471 387.438400
   5348   5351   5353     1   109.8000471 387.438400
   5349   5348   5351     1   109.5600471 388.275200
   5349   5348   5350     1   108.4600466 328.025600
   5350   5348   5351     1   109.5600471 388.275200
   5352   5351   5354     1   108.7700466 392.459200
   5352   5351   5353     1   107.5800459 329.699200
   5353   5351   5354     1   108.7700466 392.459200
   5354   5356   5357     1   106.5500460 417.563200
   5359   5362   5363     1   109.8000471 387.438400
   5359   5362   5364     1   109.8000471 387.438400
   5360   5359   5362     1   109.5600471 388.275200
   5360   5359   5389     1   109.7800468 425.094400
   5360   5359   5361     1   108.4600466 328.025600
   5361   5359   5362     1   109.5600471 388.275200
   5361   5359   5389     1   109.7800468 425.094400
   5362   5365   5366     1   109.5600471 388.275200
   5362   5365   5367     1   109.5600471 388.275200
   5363   5362   5365     1   109.8000471 387.438400
   5363   5362   5364     1   107.5800459 329.699200
   5364   5362   5365     1   109.8000471 387.438400
   5366   5365   5368     1   109.8800469 414.216000
   5366   5365   5367     1   108.4600466 328.025600
   5367   5365   5368     1   109.8800469 414.216000
   5368   5369   5370     1   109.8800469 414.216000
   5368   5369   5371     1   109.8800469 414.216000
   5368   5379   5380     1   109.8800469 414.216000
   5368   5379   5381     1   109.8800469 414.216000
   5369   5372   5373     1   109.8000471 387.438400
   5369   5372   5374     1   109.8000471 387.438400
   5370   5369   5372     1   109.5600471 388.275200
   5370   5369   5371     1   108.4600466 328.025600
   5371   5369   5372     1   109.5600471 388.275200
   5373   5372   5375     1   108.7700466 392.459200
   5373   5372   5374     1   107.5800459 329.699200
   5374   5372   5375     1   108.7700466 392.459200
   5375   5377   5378     1   106.5500460 417.563200
   5379   5382   5383     1   109.8000471 387.438400
   5379   5382   5384     1   109.8000471 387.438400
   5380   5379   5382     1   109.5600471 388.275200
   5380   5379   5381     1   108.4600466 328.025600
   5381   5379   5382     1   109.5600471 388.275200
   5383   5382   5385     1   108.7700466 392.459200
   5383   5382   5384     1   107.5800459 329.699200
   5384   5382   5385     1   108.7700466 392.459200
   5385   5387   5388     1   106.5500460 417.563200
   5390   5393   5394     1   109.8000471 387.438400
   5390   5393   5395     1   109.8000471 387.438400
   5391   5390   5393     1   109.5600471 388.275200
   5391   5390   5420     1   109.7800468 425.094400
   5391   5390   5392     1   108.4600466 328.025600
   5392   5390   5393     1   109.5600471 388.275200
   5392   5390   5420     1   109.7800468 425.094400
   5393   5396   5397     1   109.5600471 388.275200
   5393   5396   5398     1   109.5600471 388.275200
   5394   5393   5396     1   109.8000471 387.438400
   5394   5393   5395     1   107.5800459 329.699200
   5395   5393   5396     1   109.8000471 387.438400
   5397   5396   5399     1   109.8800469 414.216000
   5397   5396   5398     1   108.4600466 328.025600
   5398   5396   5399     1   109.8800469 414.216000
   5399   5400   5401     1   109.8800469 414.216000
   5399   5400   5402     1   109.8800469 414.216000
   5399   5410   5411     1   109.8800469 414.216000
   5399   5410   5412     1   109.8800469 414.216000
   5400   5403   5404     1   109.8000471 387.438400
   5400   5403   5405     1   109.8000471 387.438400
   5401   5400   5403     1   109.5600471 388.275200
   5401   5400   5402     1   108.4600466 328.025600
   5402   5400   5403     1   109.5600471 388.275200
   5404   5403   5406     1   108.7700466 392.459200
   5404   5403   5405     1   107.5800459 329.699200
   5405   5403   5406     1   108.7700466 392.459200
   5406   5408   5409     1   106.5500460 417.563200
   5410   5413   5414     1   109.8000471 387.438400
   5410   5413   5415     1   109.8000471 387.438400
   5411   5410   5413     1   109.5600471 388.275200
   5411   5410   5412     1   108.4600466 328.025600
   5412   5410   5413     1   109.5600471 388.275200
   5414   5413   5416     1   108.7700466 392.459200
   5414   5413   5415     1   107.5800459 329.699200
   5415   5413   5416     1   108.7700466 392.459200
   5416   5418   5419     1   106.5500460 417.563200
   5421   5424   5425     1   109.8000471 387.438400
   5421   5424   5426     1   109.8000471 387.438400
   5422   5421   5424     1   109.5600471 388.275200
   5422   5421   5451     1   109.7800468 425.094400
   5422   5421   5423     1   108.4600466 328.025600
   5423   5421   5424     1   109.5600471 388.275200
   5423   5421   5451     1   109.7800468 425.094400
   5424   5427   5428     1   109.5600471 388.275200
   5424   5427   5429     1   109.5600471 388.275200
   5425   5424   5427     1   109.8000471 387.438400
   5425   5424   5426     1   107.5800459 329.699200
   5426   5424   5427     1   109.8000471 387.438400
   5428   5427   5430     1   109.8800469 414.216000
   5428   5427   5429     1   108.4600466 328.025600
   5429   5427   5430     1   109.8800469 414.216000
   5430   5431   5432     1   109.8800469 414.216000
   5430   5431   5433     1   109.8800469 414.216000
   5430   5441   5442     1   109.8800469 414.216000
   5430   5441   5443     1   109.8800469 414.216000
   5431   5434   5435     1   109.8000471 387.438400
   5431   5434   5436     1   109.8000471 387.438400
   5432   5431   5434     1   109.5600471 388.275200
   5432   5431   5433     1   108.4600466 328.025600
   5433   5431   5434     1   109.5600471 388.275200
   5435   5434   5437     1   108.7700466 392.459200
   5435   5434   5436     1   107.5800459 329.699200
   5436   5434   5437     1   108.7700466 392.459200
   5437   5439   5440     1   106.5500460 417.563200
   5441   5444   5445     1   109.8000471 387.438400
   5441   5444   5446     1   109.8000471 387.438400
   5442   5441   5444     1   109.5600471 388.275200
   5442   5441   5443     1   108.4600466 328.025600
   5443   5441   5444     1   109.5600471 388.275200
   5445   5444   5447     1   108.7700466 392.459200
   5445   5444   5446     1   107.5800459 329.699200
   5446   5444   5447     1   108.7700466 392.459200
   5447   5449   5450     1   106.5500460 417.563200
   5452   5455   5456     1   109.8000471 387.438400
   5452   5455   5457     1   109.8000471 387.438400
   5453   5452   5455     1   109.5600471 388.275200
   5453   5452   5482     1   109.7800468 425.094400
   5453   5452   5454     1   108.4600466 328.025600
   5454   5452   5455     1   109.5600471 388.275200
   5454   5452   5482     1   109.7800468 425.094400
   5455   5458   5459     1   109.5600471 388.275200
   5455   5458   5460     1   109.5600471 388.275200
   5456   5455   5458     1   109.8000471 387.438400
   5456   5455   5457     1   107.5800459 329.699200
   5457   5455   5458     1   109.8000471 387.438400
   5459   5458   5461     1   109.8800469 414.216000
   5459   5458   5460     1   108.4600466 328.025600
   5460   5458   5461     1   109.8800469 414.216000
   5461   5462   5463     1   109.8800469 414.216000
   5461   5462   5464     1   109.8800469 414.216000
   5461   5472   5473     1   109.8800469 414.216000
   5461   5472   5474     1   109.8800469 414.216000
   5462   5465   5466     1   109.8000471 387.438400
   5462   5465   5467     1   109.8000471 387.438400
   5463   5462   5465     1   109.5600471 388.275200
   5463   5462   5464     1   108.4600466 328.025600
   5464   5462   5465     1   109.5600471 388.275200
   5466   5465   5468     1   108.7700466 392.459200
   5466   5465   5467     1   107.5800459 329.699200
   5467   5465   5468     1   108.7700466 392.459200
   5468   5470   5471     1   106.5500460 417.563200
   5472   5475   5476     1   109.8000471 387.438400
   5472   5475   5477     1   109.8000471 387.438400
   5473   5472   5475     1   109.5600471 388.275200
   5473   5472   5474     1   108.4600466 328.025600
   5474   5472   5475     1   109.5600471 388.275200
   5476   5475   5478     1   108.7700466 392.459200
   5476   5475   5477     1   107.5800459 329.699200
   5477   5475   5478     1   108.7700466 392.459200
   5478   5480   5481     1   106.5500460 417.563200
   5483   5486   5487     1   109.8000471 387.438400
   5483   5486   5488     1   109.8000471 387.438400
   5484   5483   5486     1   109.5600471 388.275200
   5484   5483   5513     1   109.7800468 425.094400
   5484   5483   5485     1   108.4600466 328.025600
   5485   5483   5486     1   109.5600471 388.275200
   5485   5483   5513     1   109.7800468 425.094400
   5486   5489   5490     1   109.5600471 388.275200
   5486   5489   5491     1   109.5600471 388.275200
   5487   5486   5489     1   109.8000471 387.438400
   5487   5486   5488     1   107.5800459 329.699200
   5488   5486   5489     1   109.8000471 387.438400
   5490   5489   5492     1   109.8800469 414.216000
   5490   5489   5491     1   108.4600466 328.025600
   5491   5489   5492     1   109.8800469 414.216000
   5492   5493   5494     1   109.8800469 414.216000
   5492   5493   5495     1   109.8800469 414.216000
   5492   5503   5504     1   109.8800469 414.216000
   5492   5503   5505     1   109.8800469 414.216000
   5493   5496   5497     1   109.8000471 387.438400
   5493   5496   5498     1   109.8000471 387.438400
   5494   5493   5496     1   109.5600471 388.275200
   5494   5493   5495     1   108.4600466 328.025600
   5495   5493   5496     1   109.5600471 388.275200
   5497   5496   5499     1   108.7700466 392.459200
   5497   5496   5498     1   107.5800459 329.699200
   5498   5496   5499     1   108.7700466 392.459200
   5499   5501   5502     1   106.5500460 417.563200
   5503   5506   5507     1   109.8000471 387.438400
   5503   5506   5508     1   109.8000471 387.438400
   5504   5503   5506     1   109.5600471 388.275200
   5504   5503   5505     1   108.4600466 328.025600
   5505   5503   5506     1   109.5600471 388.275200
   5507   5506   5509     1   108.7700466 392.459200
   5507   5506   5508     1   107.5800459 329.699200
   5508   5506   5509     1   108.7700466 392.459200
   5509   5511   5512     1   106.5500460 417.563200
   5514   5517   5518     1   109.8000471 387.438400
   5514   5517   5519     1   109.8000471 387.438400
   5515   5514   5517     1   109.5600471 388.275200
   5515   5514   5544     1   109.7800468 425.094400
   5515   5514   5516     1   108.4600466 328.025600
   5516   5514   5517     1   109.5600471 388.275200
   5516   5514   5544     1   109.7800468 425.094400
   5517   5520   5521     1   109.5600471 388.275200
   5517   5520   5522     1   109.5600471 388.275200
   5518   5517   5520     1   109.8000471 387.438400
   5518   5517   5519     1   107.5800459 329.699200
   5519   5517   5520     1   109.8000471 387.438400
   5521   5520   5523     1   109.8800469 414.216000
   5521   5520   5522     1   108.4600466 328.025600
   5522   5520   5523     1   109.8800469 414.216000
   5523   5524   5525     1   109.8800469 414.216000
   5523   5524   5526     1   109.8800469 414.216000
   5523   5534   5535     1   109.8800469 414.216000
   5523   5534   5536     1   109.8800469 414.216000
   5524   5527   5528     1   109.8000471 387.438400
   5524   5527   5529     1   109.8000471 387.438400
   5525   5524   5527     1   109.5600471 388.275200
   5525   5524   5526     1   108.4600466 328.025600
   5526   5524   5527     1   109.5600471 388.275200
   5528   5527   5530     1   108.7700466 392.459200
   5528   5527   5529     1   107.5800459 329.699200
   5529   5527   5530     1   108.7700466 392.459200
   5530   5532   5533     1   106.5500460 417.563200
   5534   5537   5538     1   109.8000471 387.438400
   5534   5537   5539     1   109.8000471 387.438400
   5535   5534   5537     1   109.5600471 388.275200
   5535   5534   5536     1   108.4600466 328.025600
   5536   5534   5537     1   109.5600471 388.275200
   5538   5537   5540     1   108.7700466 392.459200
   5538   5537   5539     1   107.5800459 329.699200
   5539   5537   5540     1   108.7700466 392.459200
   5540   5542   5543     1   106.5500460 417.563200
   5545   5548   5549     1   109.8000471 387.438400
   5545   5548   5550     1   109.8000471 387.438400
   5546   5545   5548     1   109.5600471 388.275200
   5546   5545   5575     1   109.7800468 425.094400
   5546   5545   5547     1   108.4600466 328.025600
   5547   5545   5548     1   109.5600471 388.275200
   5547   5545   5575     1   109.7800468 425.094400
   5548   5551   5552     1   109.5600471 388.275200
   5548   5551   5553     1   109.5600471 388.275200
   5549   5548   5551     1   109.8000471 387.438400
   5549   5548   5550     1   107.5800459 329.699200
   5550   5548   5551     1   109.8000471 387.438400
   5552   5551   5554     1   109.8800469 414.216000
   5552   5551   5553     1   108.4600466 328.025600
   5553   5551   5554     1   109.8800469 414.216000
   5554   5555   5556     1   109.8800469 414.216000
   5554   5555   5557     1   109.8800469 414.216000
   5554   5565   5566     1   109.8800469 414.216000
   5554   5565   5567     1   109.8800469 414.216000
   5555   5558   5559     1   109.8000471 387.438400
   5555   5558   5560     1   109.8000471 387.438400
   5556   5555   5558     1   109.5600471 388.275200
   5556   5555   5557     1   108.4600466 328.025600
   5557   5555   5558     1   109.5600471 388.275200
   5559   5558   5561     1   108.7700466 392.459200
   5559   5558   5560     1   107.5800459 329.699200
   5560   5558   5561     1   108.7700466 392.459200
   5561   5563   5564     1   106.5500460 417.563200
   5565   5568   5569     1   109.8000471 387.438400
   5565   5568   5570     1   109.8000471 387.438400
   5566   5565   5568     1   109.5600471 388.275200
   5566   5565   5567     1   108.4600466 328.025600
   5567   5565   5568     1   109.5600471 388.275200
   5569   5568   5571     1   108.7700466 392.459200
   5569   5568   5570     1   107.5800459 329.699200
   5570   5568   5571     1   108.7700466 392.459200
   5571   5573   5574     1   106.5500460 417.563200
   5576   5579   5580     1   109.8000471 387.438400
   5576   5579   5581     1   109.8000471 387.438400
   5577   5576   5579     1   109.5600471 388.275200
   5577   5576   5606     1   109.7800468 425.094400
   5577   5576   5578     1   108.4600466 328.025600
   5578   5576   5579     1   109.5600471 388.275200
   5578   5576   5606     1   109.7800468 425.094400
   5579   5582   5583     1   109.5600471 388.275200
   5579   5582   5584     1   109.5600471 388.275200
   5580   5579   5582     1   109.8000471 387.438400
   5580   5579   5581     1   107.5800459 329.699200
   5581   5579   5582     1   109.8000471 387.438400
   5583   5582   5585     1   109.8800469 414.216000
   5583   5582   5584     1   108.4600466 328.025600
   5584   5582   5585     1   109.8800469 414.216000
   5585   5586   5587     1   109.8800469 414.216000
   5585   5586   5588     1   109.8800469 414.216000
   5585   5596   5597     1   109.8800469 414.216000
   5585   5596   5598     1   109.8800469 414.216000
   5586   5589   5590     1   109.8000471 387.438400
   5586   5589   5591     1   109.8000471 387.438400
   5587   5586   5589     1   109.5600471 388.275200
   5587   5586   5588     1   108.4600466 328.025600
   5588   5586   5589     1   109.5600471 388.275200
   5590   5589   5592     1   108.7700466 392.459200
   5590   5589   5591     1   107.5800459 329.699200
   5591   5589   5592     1   108.7700466 392.459200
   5592   5594   5595     1   106.5500460 417.563200
   5596   5599   5600     1   109.8000471 387.438400
   5596   5599   5601     1   109.8000471 387.438400
   5597   5596   5599     1   109.5600471 388.275200
   5597   5596   5598     1   108.4600466 328.025600
   5598   5596   5599     1   109.5600471 388.275200
   5600   5599   5602     1   108.7700466 392.459200
   5600   5599   5601     1   107.5800459 329.699200
   5601   5599   5602     1   108.7700466 392.459200
   5602   5604   5605     1   106.5500460 417.563200
   5607   5610   5611     1   109.8000471 387.438400
   5607   5610   5612     1   109.8000471 387.438400
   5608   5607   5610     1   109.5600471 388.275200
   5608   5607   5637     1   109.7800468 425.094400
   5608   5607   5609     1   108.4600466 328.025600
   5609   5607   5610     1   109.5600471 388.275200
   5609   5607   5637     1   109.7800468 425.094400
   5610   5613   5614     1   109.5600471 388.275200
   5610   5613   5615     1   109.5600471 388.275200
   5611   5610   5613     1   109.8000471 387.438400
   5611   5610   5612     1   107.5800459 329.699200
   5612   5610   5613     1   109.8000471 387.438400
   5614   5613   5616     1   109.8800469 414.216000
   5614   5613   5615     1   108.4600466 328.025600
   5615   5613   5616     1   109.8800469 414.216000
   5616   5617   5618     1   109.8800469 414.216000
   5616   5617   5619     1   109.8800469 414.216000
   5616   5627   5628     1   109.8800469 414.216000
   5616   5627   5629     1   109.8800469 414.216000
   5617   5620   5621     1   109.8000471 387.438400
   5617   5620   5622     1   109.8000471 387.438400
   5618   5617   5620     1   109.5600471 388.275200
   5618   5617   5619     1   108.4600466 328.025600
   5619   5617   5620     1   109.5600471 388.275200
   5621   5620   5623     1   108.7700466 392.459200
   5621   5620   5622     1   107.5800459 329.699200
   5622   5620   5623     1   108.7700466 392.459200
   5623   5625   5626     1   106.5500460 417.563200
   5627   5630   5631     1   109.8000471 387.438400
   5627   5630   5632     1   109.8000471 387.438400
   5628   5627   5630     1   109.5600471 388.275200
   5628   5627   5629     1   108.4600466 328.025600
   5629   5627   5630     1   109.5600471 388.275200
   5631   5630   5633     1   108.7700466 392.459200
   5631   5630   5632     1   107.5800459 329.699200
   5632   5630   5633     1   108.7700466 392.459200
   5633   5635   5636     1   106.5500460 417.563200
   5638   5641   5642     1   109.8000471 387.438400
   5638   5641   5643     1   109.8000471 387.438400
   5639   5638   5641     1   109.5600471 388.275200
   5639   5638   5668     1   109.7800468 425.094400
   5639   5638   5640     1   108.4600466 328.025600
   5640   5638   5641     1   109.5600471 388.275200
   5640   5638   5668     1   109.7800468 425.094400
   5641   5644   5645     1   109.5600471 388.275200
   5641   5644   5646     1   109.5600471 388.275200
   5642   5641   5644     1   109.8000471 387.438400
   5642   5641   5643     1   107.5800459 329.699200
   5643   5641   5644     1   109.8000471 387.438400
   5645   5644   5647     1   109.8800469 414.216000
   5645   5644   5646     1   108.4600466 328.025600
   5646   5644   5647     1   109.8800469 414.216000
   5647   5648   5649     1   109.8800469 414.216000
   5647   5648   5650     1   109.8800469 414.216000
   5647   5658   5659     1   109.8800469 414.216000
   5647   5658   5660     1   109.8800469 414.216000
   5648   5651   5652     1   109.8000471 387.438400
   5648   5651   5653     1   109.8000471 387.438400
   5649   5648   5651     1   109.5600471 388.275200
   5649   5648   5650     1   108.4600466 328.025600
   5650   5648   5651     1   109.5600471 388.275200
   5652   5651   5654     1   108.7700466 392.459200
   5652   5651   5653     1   107.5800459 329.699200
   5653   5651   5654     1   108.7700466 392.459200
   5654   5656   5657     1   106.5500460 417.563200
   5658   5661   5662     1   109.8000471 387.438400
   5658   5661   5663     1   109.8000471 387.438400
   5659   5658   5661     1   109.5600471 388.275200
   5659   5658   5660     1   108.4600466 328.025600
   5660   5658   5661     1   109.5600471 388.275200
   5662   5661   5664     1   108.7700466 392.459200
   5662   5661   5663     1   107.5800459 329.699200
   5663   5661   5664     1   108.7700466 392.459200
   5664   5666   5667     1   106.5500460 417.563200
   5669   5672   5673     1   109.8000471 387.438400
   5669   5672   5674     1   109.8000471 387.438400
   5670   5669   5672     1   109.5600471 388.275200
   5670   5669   5699     1   109.7800468 425.094400
   5670   5669   5671     1   108.4600466 328.025600
   5671   5669   5672     1   109.5600471 388.275200
   5671   5669   5699     1   109.7800468 425.094400
   5672   5675   5676     1   109.5600471 388.275200
   5672   5675   5677     1   109.5600471 388.275200
   5673   5672   5675     1   109.8000471 387.438400
   5673   5672   5674     1   107.5800459 329.699200
   5674   5672   5675     1   109.8000471 387.438400
   5676   5675   5678     1   109.8800469 414.216000
   5676   5675   5677     1   108.4600466 328.025600
   5677   5675   5678     1   109.8800469 414.216000
   5678   5679   5680     1   109.8800469 414.216000
   5678   5679   5681     1   109.8800469 414.216000
   5678   5689   5690     1   109.8800469 414.216000
   5678   5689   5691     1   109.8800469 414.216000
   5679   5682   5683     1   109.8000471 387.438400
   5679   5682   5684     1   109.8000471 387.438400
   5680   5679   5682     1   109.5600471 388.275200
   5680   5679   5681     1   108.4600466 328.025600
   5681   5679   5682     1   109.5600471 388.275200
   5683   5682   5685     1   108.7700466 392.459200
   5683   5682   5684     1   107.5800459 329.699200
   5684   5682   5685     1   108.7700466 392.459200
   5685   5687   5688     1   106.5500460 417.563200
   5689   5692   5693     1   109.8000471 387.438400
   5689   5692   5694     1   109.8000471 387.438400
   5690   5689   5692     1   109.5600471 388.275200
   5690   5689   5691     1   108.4600466 328.025600
   5691   5689   5692     1   109.5600471 388.275200
   5693   5692   5695     1   108.7700466 392.459200
   5693   5692   5694     1   107.5800459 329.699200
   5694   5692   5695     1   108.7700466 392.459200
   5695   5697   5698     1   106.5500460 417.563200
   5700   5703   5704     1   109.8000471 387.438400
   5700   5703   5705     1   109.8000471 387.438400
   5701   5700   5703     1   109.5600471 388.275200
   5701   5700   5730     1   109.7800468 425.094400
   5701   5700   5702     1   108.4600466 328.025600
   5702   5700   5703     1   109.5600471 388.275200
   5702   5700   5730     1   109.7800468 425.094400
   5703   5706   5707     1   109.5600471 388.275200
   5703   5706   5708     1   109.5600471 388.275200
   5704   5703   5706     1   109.8000471 387.438400
   5704   5703   5705     1   107.5800459 329.699200
   5705   5703   5706     1   109.8000471 387.438400
   5707   5706   5709     1   109.8800469 414.216000
   5707   5706   5708     1   108.4600466 328.025600
   5708   5706   5709     1   109.8800469 414.216000
   5709   5710   5711     1   109.8800469 414.216000
   5709   5710   5712     1   109.8800469 414.216000
   5709   5720   5721     1   109.8800469 414.216000
   5709   5720   5722     1   109.8800469 414.216000
   5710   5713   5714     1   109.8000471 387.438400
   5710   5713   5715     1   109.8000471 387.438400
   5711   5710   5713     1   109.5600471 388.275200
   5711   5710   5712     1   108.4600466 328.025600
   5712   5710   5713     1   109.5600471 388.275200
   5714   5713   5716     1   108.7700466 392.459200
   5714   5713   5715     1   107.5800459 329.699200
   5715   5713   5716     1   108.7700466 392.459200
   5716   5718   5719     1   106.5500460 417.563200
   5720   5723   5724     1   109.8000471 387.438400
   5720   5723   5725     1   109.8000471 387.438400
   5721   5720   5723     1   109.5600471 388.275200
   5721   5720   5722     1   108.4600466 328.025600
   5722   5720   5723     1   109.5600471 388.275200
   5724   5723   5726     1   108.7700466 392.459200
   5724   5723   5725     1   107.5800459 329.699200
   5725   5723   5726     1   108.7700466 392.459200
   5726   5728   5729     1   106.5500460 417.563200
   5731   5734   5735     1   109.8000471 387.438400
   5731   5734   5736     1   109.8000471 387.438400
   5732   5731   5734     1   109.5600471 388.275200
   5732   5731   5761     1   109.7800468 425.094400
   5732   5731   5733     1   108.4600466 328.025600
   5733   5731   5734     1   109.5600471 388.275200
   5733   5731   5761     1   109.7800468 425.094400
   5734   5737   5738     1   109.5600471 388.275200
   5734   5737   5739     1   109.5600471 388.275200
   5735   5734   5737     1   109.8000471 387.438400
   5735   5734   5736     1   107.5800459 329.699200
   5736   5734   5737     1   109.8000471 387.438400
   5738   5737   5740     1   109.8800469 414.216000
   5738   5737   5739     1   108.4600466 328.025600
   5739   5737   5740     1   109.8800469 414.216000
   5740   5741   5742     1   109.8800469 414.216000
   5740   5741   5743     1   109.8800469 414.216000
   5740   5751   5752     1   109.8800469 414.216000
   5740   5751   5753     1   109.8800469 414.216000
   5741   5744   5745     1   109.8000471 387.438400
   5741   5744   5746     1   109.8000471 387.438400
   5742   5741   5744     1   109.5600471 388.275200
   5742   5741   5743     1   108.4600466 328.025600
   5743   5741   5744     1   109.5600471 388.275200
   5745   5744   5747     1   108.7700466 392.459200
   5745   5744   5746     1   107.5800459 329.699200
   5746   5744   5747     1   108.7700466 392.459200
   5747   5749   5750     1   106.5500460 417.563200
   5751   5754   5755     1   109.8000471 387.438400
   5751   5754   5756     1   109.8000471 387.438400
   5752   5751   5754     1   109.5600471 388.275200
   5752   5751   5753     1   108.4600466 328.025600
   5753   5751   5754     1   109.5600471 388.275200
   5755   5754   5757     1   108.7700466 392.459200
   5755   5754   5756     1   107.5800459 329.699200
   5756   5754   5757     1   108.7700466 392.459200
   5757   5759   5760     1   106.5500460 417.563200
   5762   5765   5766     1   109.8000471 387.438400
   5762   5765   5767     1   109.8000471 387.438400
   5763   5762   5765     1   109.5600471 388.275200
   5763   5762   5792     1   109.7800468 425.094400
   5763   5762   5764     1   108.4600466 328.025600
   5764   5762   5765     1   109.5600471 388.275200
   5764   5762   5792     1   109.7800468 425.094400
   5765   5768   5769     1   109.5600471 388.275200
   5765   5768   5770     1   109.5600471 388.275200
   5766   5765   5768     1   109.8000471 387.438400
   5766   5765   5767     1   107.5800459 329.699200
   5767   5765   5768     1   109.8000471 387.438400
   5769   5768   5771     1   109.8800469 414.216000
   5769   5768   5770     1   108.4600466 328.025600
   5770   5768   5771     1   109.8800469 414.216000
   5771   5772   5773     1   109.8800469 414.216000
   5771   5772   5774     1   109.8800469 414.216000
   5771   5782   5783     1   109.8800469 414.216000
   5771   5782   5784     1   109.8800469 414.216000
   5772   5775   5776     1   109.8000471 387.438400
   5772   5775   5777     1   109.8000471 387.438400
   5773   5772   5775     1   109.5600471 388.275200
   5773   5772   5774     1   108.4600466 328.025600
   5774   5772   5775     1   109.5600471 388.275200
   5776   5775   5778     1   108.7700466 392.459200
   5776   5775   5777     1   107.5800459 329.699200
   5777   5775   5778     1   108.7700466 392.459200
   5778   5780   5781     1   106.5500460 417.563200
   5782   5785   5786     1   109.8000471 387.438400
   5782   5785   5787     1   109.8000471 387.438400
   5783   5782   5785     1   109.5600471 388.275200
   5783   5782   5784     1   108.4600466 328.025600
   5784   5782   5785     1   109.5600471 388.275200
   5786   5785   5788     1   108.7700466 392.459200
   5786   5785   5787     1   107.5800459 329.699200
   5787   5785   5788     1   108.7700466 392.459200
   5788   5790   5791     1   106.5500460 417.563200
   5793   5796   5797     1   109.8000471 387.438400
   5793   5796   5798     1   109.8000471 387.438400
   5794   5793   5796     1   109.5600471 388.275200
   5794   5793   5823     1   109.7800468 425.094400
   5794   5793   5795     1   108.4600466 328.025600
   5795   5793   5796     1   109.5600471 388.275200
   5795   5793   5823     1   109.7800468 425.094400
   5796   5799   5800     1   109.5600471 388.275200
   5796   5799   5801     1   109.5600471 388.275200
   5797   5796   5799     1   109.8000471 387.438400
   5797   5796   5798     1   107.5800459 329.699200
   5798   5796   5799     1   109.8000471 387.438400
   5800   5799   5802     1   109.8800469 414.216000
   5800   5799   5801     1   108.4600466 328.025600
   5801   5799   5802     1   109.8800469 414.216000
   5802   5803   5804     1   109.8800469 414.216000
   5802   5803   5805     1   109.8800469 414.216000
   5802   5813   5814     1   109.8800469 414.216000
   5802   5813   5815     1   109.8800469 414.216000
   5803   5806   5807     1   109.8000471 387.438400
   5803   5806   5808     1   109.8000471 387.438400
   5804   5803   5806     1   109.5600471 388.275200
   5804   5803   5805     1   108.4600466 328.025600
   5805   5803   5806     1   109.5600471 388.275200
   5807   5806   5809     1   108.7700466 392.459200
   5807   5806   5808     1   107.5800459 329.699200
   5808   5806   5809     1   108.7700466 392.459200
   5809   5811   5812     1   106.5500460 417.563200
   5813   5816   5817     1   109.8000471 387.438400
   5813   5816   5818     1   109.8000471 387.438400
   5814   5813   5816     1   109.5600471 388.275200
   5814   5813   5815     1   108.4600466 328.025600
   5815   5813   5816     1   109.5600471 388.275200
   5817   5816   5819     1   108.7700466 392.459200
   5817   5816   5818     1   107.5800459 329.699200
   5818   5816   5819     1   108.7700466 392.459200
   5819   5821   5822     1   106.5500460 417.563200
   5824   5827   5828     1   109.8000471 387.438400
   5824   5827   5829     1   109.8000471 387.438400
   5825   5824   5827     1   109.5600471 388.275200
   5825   5824   5854     1   109.7800468 425.094400
   5825   5824   5826     1   108.4600466 328.025600
   5826   5824   5827     1   109.5600471 388.275200
   5826   5824   5854     1   109.7800468 425.094400
   5827   5830   5831     1   109.5600471 388.275200
   5827   5830   5832     1   109.5600471 388.275200
   5828   5827   5830     1   109.8000471 387.438400
   5828   5827   5829     1   107.5800459 329.699200
   5829   5827   5830     1   109.8000471 387.438400
   5831   5830   5833     1   109.8800469 414.216000
   5831   5830   5832     1   108.4600466 328.025600
   5832   5830   5833     1   109.8800469 414.216000
   5833   5834   5835     1   109.8800469 414.216000
   5833   5834   5836     1   109.8800469 414.216000
   5833   5844   5845     1   109.8800469 414.216000
   5833   5844   5846     1   109.8800469 414.216000
   5834   5837   5838     1   109.8000471 387.438400
   5834   5837   5839     1   109.8000471 387.438400
   5835   5834   5837     1   109.5600471 388.275200
   5835   5834   5836     1   108.4600466 328.025600
   5836   5834   5837     1   109.5600471 388.275200
   5838   5837   5840     1   108.7700466 392.459200
   5838   5837   5839     1   107.5800459 329.699200
   5839   5837   5840     1   108.7700466 392.459200
   5840   5842   5843     1   106.5500460 417.563200
   5844   5847   5848     1   109.8000471 387.438400
   5844   5847   5849     1   109.8000471 387.438400
   5845   5844   5847     1   109.5600471 388.275200
   5845   5844   5846     1   108.4600466 328.025600
   5846   5844   5847     1   109.5600471 388.275200
   5848   5847   5850     1   108.7700466 392.459200
   5848   5847   5849     1   107.5800459 329.699200
   5849   5847   5850     1   108.7700466 392.459200
   5850   5852   5853     1   106.5500460 417.563200
   5855   5858   5859     1   109.8000471 387.438400
   5855   5858   5860     1   109.8000471 387.438400
   5856   5855   5858     1   109.5600471 388.275200
   5856   5855   5885     1   109.7800468 425.094400
   5856   5855   5857     1   108.4600466 328.025600
   5857   5855   5858     1   109.5600471 388.275200
   5857   5855   5885     1   109.7800468 425.094400
   5858   5861   5862     1   109.5600471 388.275200
   5858   5861   5863     1   109.5600471 388.275200
   5859   5858   5861     1   109.8000471 387.438400
   5859   5858   5860     1   107.5800459 329.699200
   5860   5858   5861     1   109.8000471 387.438400
   5862   5861   5864     1   109.8800469 414.216000
   5862   5861   5863     1   108.4600466 328.025600
   5863   5861   5864     1   109.8800469 414.216000
   5864   5865   5866     1   109.8800469 414.216000
   5864   5865   5867     1   109.8800469 414.216000
   5864   5875   5876     1   109.8800469 414.216000
   5864   5875   5877     1   109.8800469 414.216000
   5865   5868   5869     1   109.8000471 387.438400
   5865   5868   5870     1   109.8000471 387.438400
   5866   5865   5868     1   109.5600471 388.275200
   5866   5865   5867     1   108.4600466 328.025600
   5867   5865   5868     1   109.5600471 388.275200
   5869   5868   5871     1   108.7700466 392.459200
   5869   5868   5870     1   107.5800459 329.699200
   5870   5868   5871     1   108.7700466 392.459200
   5871   5873   5874     1   106.5500460 417.563200
   5875   5878   5879     1   109.8000471 387.438400
   5875   5878   5880     1   109.8000471 387.438400
   5876   5875   5878     1   109.5600471 388.275200
   5876   5875   5877     1   108.4600466 328.025600
   5877   5875   5878     1   109.5600471 388.275200
   5879   5878   5881     1   108.7700466 392.459200
   5879   5878   5880     1   107.5800459 329.699200
   5880   5878   5881     1   108.7700466 392.459200
   5881   5883   5884     1   106.5500460 417.563200
   5886   5889   5890     1   109.8000471 387.438400
   5886   5889   5891     1   109.8000471 387.438400
   5887   5886   5889     1   109.5600471 388.275200
   5887   5886   5916     1   109.7800468 425.094400
   5887   5886   5888     1   108.4600466 328.025600
   5888   5886   5889     1   109.5600471 388.275200
   5888   5886   5916     1   109.7800468 425.094400
   5889   5892   5893     1   109.5600471 388.275200
   5889   5892   5894     1   109.5600471 388.275200
   5890   5889   5892     1   109.8000471 387.438400
   5890   5889   5891     1   107.5800459 329.699200
   5891   5889   5892     1   109.8000471 387.438400
   5893   5892   5895     1   109.8800469 414.216000
   5893   5892   5894     1   108.4600466 328.025600
   5894   5892   5895     1   109.8800469 414.216000
   5895   5896   5897     1   109.8800469 414.216000
   5895   5896   5898     1   109.8800469 414.216000
   5895   5906   5907     1   109.8800469 414.216000
   5895   5906   5908     1   109.8800469 414.216000
   5896   5899   5900     1   109.8000471 387.438400
   5896   5899   5901     1   109.8000471 387.438400
   5897   5896   5899     1   109.5600471 388.275200
   5897   5896   5898     1   108.4600466 328.025600
   5898   5896   5899     1   109.5600471 388.275200
   5900   5899   5902     1   108.7700466 392.459200
   5900   5899   5901     1   107.5800459 329.699200
   5901   5899   5902     1   108.7700466 392.459200
   5902   5904   5905     1   106.5500460 417.563200
   5906   5909   5910     1   109.8000471 387.438400
   5906   5909   5911     1   109.8000471 387.438400
   5907   5906   5909     1   109.5600471 388.275200
   5907   5906   5908     1   108.4600466 328.025600
   5908   5906   5909     1   109.5600471 388.275200
   5910   5909   5912     1   108.7700466 392.459200
   5910   5909   5911     1   107.5800459 329.699200
   5911   5909   5912     1   108.7700466 392.459200
   5912   5914   5915     1   106.5500460 417.563200
   5917   5920   5921     1   109.8000471 387.438400
   5917   5920   5922     1   109.8000471 387.438400
   5918   5917   5920     1   109.5600471 388.275200
   5918   5917   5947     1   109.7800468 425.094400
   5918   5917   5919     1   108.4600466 328.025600
   5919   5917   5920     1   109.5600471 388.275200
   5919   5917   5947     1   109.7800468 425.094400
   5920   5923   5924     1   109.5600471 388.275200
   5920   5923   5925     1   109.5600471 388.275200
   5921   5920   5923     1   109.8000471 387.438400
   5921   5920   5922     1   107.5800459 329.699200
   5922   5920   5923     1   109.8000471 387.438400
   5924   5923   5926     1   109.8800469 414.216000
   5924   5923   5925     1   108.4600466 328.025600
   5925   5923   5926     1   109.8800469 414.216000
   5926   5927   5928     1   109.8800469 414.216000
   5926   5927   5929     1   109.8800469 414.216000
   5926   5937   5938     1   109.8800469 414.216000
   5926   5937   5939     1   109.8800469 414.216000
   5927   5930   5931     1   109.8000471 387.438400
   5927   5930   5932     1   109.8000471 387.438400
   5928   5927   5930     1   109.5600471 388.275200
   5928   5927   5929     1   108.4600466 328.025600
   5929   5927   5930     1   109.5600471 388.275200
   5931   5930   5933     1   108.7700466 392.459200
   5931   5930   5932     1   107.5800459 329.699200
   5932   5930   5933     1   108.7700466 392.459200
   5933   5935   5936     1   106.5500460 417.563200
   5937   5940   5941     1   109.8000471 387.438400
   5937   5940   5942     1   109.8000471 387.438400
   5938   5937   5940     1   109.5600471 388.275200
   5938   5937   5939     1   108.4600466 328.025600
   5939   5937   5940     1   109.5600471 388.275200
   5941   5940   5943     1   108.7700466 392.459200
   5941   5940   5942     1   107.5800459 329.699200
   5942   5940   5943     1   108.7700466 392.459200
   5943   5945   5946     1   106.5500460 417.563200
   5948   5951   5952     1   109.8000471 387.438400
   5948   5951   5953     1   109.8000471 387.438400
   5949   5948   5951     1   109.5600471 388.275200
   5949   5948   5978     1   109.7800468 425.094400
   5949   5948   5950     1   108.4600466 328.025600
   5950   5948   5951     1   109.5600471 388.275200
   5950   5948   5978     1   109.7800468 425.094400
   5951   5954   5955     1   109.5600471 388.275200
   5951   5954   5956     1   109.5600471 388.275200
   5952   5951   5954     1   109.8000471 387.438400
   5952   5951   5953     1   107.5800459 329.699200
   5953   5951   5954     1   109.8000471 387.438400
   5955   5954   5957     1   109.8800469 414.216000
   5955   5954   5956     1   108.4600466 328.025600
   5956   5954   5957     1   109.8800469 414.216000
   5957   5958   5959     1   109.8800469 414.216000
   5957   5958   5960     1   109.8800469 414.216000
   5957   5968   5969     1   109.8800469 414.216000
   5957   5968   5970     1   109.8800469 414.216000
   5958   5961   5962     1   109.8000471 387.438400
   5958   5961   5963     1   109.8000471 387.438400
   5959   5958   5961     1   109.5600471 388.275200
   5959   5958   5960     1   108.4600466 328.025600
   5960   5958   5961     1   109.5600471 388.275200
   5962   5961   5964     1   108.7700466 392.459200
   5962   5961   5963     1   107.5800459 329.699200
   5963   5961   5964     1   108.7700466 392.459200
   5964   5966   5967     1   106.5500460 417.563200
   5968   5971   5972     1   109.8000471 387.438400
   5968   5971   5973     1   109.8000471 387.438400
   5969   5968   5971     1   109.5600471 388.275200
   5969   5968   5970     1   108.4600466 328.025600
   5970   5968   5971     1   109.5600471 388.275200
   5972   5971   5974     1   108.7700466 392.459200
   5972   5971   5973     1   107.5800459 329.699200
   5973   5971   5974     1   108.7700466 392.459200
   5974   5976   5977     1   106.5500460 417.563200
   5979   5982   5983     1   109.8000471 387.438400
   5979   5982   5984     1   109.8000471 387.438400
   5980   5979   5982     1   109.5600471 388.275200
   5980   5979   6009     1   109.7800468 425.094400
   5980   5979   5981     1   108.4600466 328.025600
   5981   5979   5982     1   109.5600471 388.275200
   5981   5979   6009     1   109.7800468 425.094400
   5982   5985   5986     1   109.5600471 388.275200
   5982   5985   5987     1   109.5600471 388.275200
   5983   5982   5985     1   109.8000471 387.438400
   5983   5982   5984     1   107.5800459 329.699200
   5984   5982   5985     1   109.8000471 387.438400
   5986   5985   5988     1   109.8800469 414.216000
   5986   5985   5987     1   108.4600466 328.025600
   5987   5985   5988     1   109.8800469 414.216000
   5988   5989   5990     1   109.8800469 414.216000
   5988   5989   5991     1   109.8800469 414.216000
   5988   5999   6000     1   109.8800469 414.216000
   5988   5999   6001     1   109.8800469 414.216000
   5989   5992   5993     1   109.8000471 387.438400
   5989   5992   5994     1   109.8000471 387.438400
   5990   5989   5992     1   109.5600471 388.275200
   5990   5989   5991     1   108.4600466 328.025600
   5991   5989   5992     1   109.5600471 388.275200
   5993   5992   5995     1   108.7700466 392.459200
   5993   5992   5994     1   107.5800459 329.699200
   5994   5992   5995     1   108.7700466 392.459200
   5995   5997   5998     1   106.5500460 417.563200
   5999   6002   6003     1   109.8000471 387.438400
   5999   6002   6004     1   109.8000471 387.438400
   6000   5999   6002     1   109.5600471 388.275200
   6000   5999   6001     1   108.4600466 328.025600
   6001   5999   6002     1   109.5600471 388.275200
   6003   6002   6005     1   108.7700466 392.459200
   6003   6002   6004     1   107.5800459 329.699200
   6004   6002   6005     1   108.7700466 392.459200
   6005   6007   6008     1   106.5500460 417.563200
   6010   6013   6014     1   109.8000471 387.438400
   6010   6013   6015     1   109.8000471 387.438400
   6011   6010   6013     1   109.5600471 388.275200
   6011   6010   6040     1   109.7800468 425.094400
   6011   6010   6012     1   108.4600466 328.025600
   6012   6010   6013     1   109.5600471 388.275200
   6012   6010   6040     1   109.7800468 425.094400
   6013   6016   6017     1   109.5600471 388.275200
   6013   6016   6018     1   109.5600471 388.275200
   6014   6013   6016     1   109.8000471 387.438400
   6014   6013   6015     1   107.5800459 329.699200
   6015   6013   6016     1   109.8000471 387.438400
   6017   6016   6019     1   109.8800469 414.216000
   6017   6016   6018     1   108.4600466 328.025600
   6018   6016   6019     1   109.8800469 414.216000
   6019   6020   6021     1   109.8800469 414.216000
   6019   6020   6022     1   109.8800469 414.216000
   6019   6030   6031     1   109.8800469 414.216000
   6019   6030   6032     1   109.8800469 414.216000
   6020   6023   6024     1   109.8000471 387.438400
   6020   6023   6025     1   109.8000471 387.438400
   6021   6020   6023     1   109.5600471 388.275200
   6021   6020   6022     1   108.4600466 328.025600
   6022   6020   6023     1   109.5600471 388.275200
   6024   6023   6026     1   108.7700466 392.459200
   6024   6023   6025     1   107.5800459 329.699200
   6025   6023   6026     1   108.7700466 392.459200
   6026   6028   6029     1   106.5500460 417.563200
   6030   6033   6034     1   109.8000471 387.438400
   6030   6033   6035     1   109.8000471 387.438400
   6031   6030   6033     1   109.5600471 388.275200
   6031   6030   6032     1   108.4600466 328.025600
   6032   6030   6033     1   109.5600471 388.275200
   6034   6033   6036     1   108.7700466 392.459200
   6034   6033   6035     1   107.5800459 329.699200
   6035   6033   6036     1   108.7700466 392.459200
   6036   6038   6039     1   106.5500460 417.563200
   6041   6044   6045     1   109.8000471 387.438400
   6041   6044   6046     1   109.8000471 387.438400
   6042   6041   6044     1   109.5600471 388.275200
   6042   6041   6071     1   109.7800468 425.094400
   6042   6041   6043     1   108.4600466 328.025600
   6043   6041   6044     1   109.5600471 388.275200
   6043   6041   6071     1   109.7800468 425.094400
   6044   6047   6048     1   109.5600471 388.275200
   6044   6047   6049     1   109.5600471 388.275200
   6045   6044   6047     1   109.8000471 387.438400
   6045   6044   6046     1   107.5800459 329.699200
   6046   6044   6047     1   109.8000471 387.438400
   6048   6047   6050     1   109.8800469 414.216000
   6048   6047   6049     1   108.4600466 328.025600
   6049   6047   6050     1   109.8800469 414.216000
   6050   6051   6052     1   109.8800469 414.216000
   6050   6051   6053     1   109.8800469 414.216000
   6050   6061   6062     1   109.8800469 414.216000
   6050   6061   6063     1   109.8800469 414.216000
   6051   6054   6055     1   109.8000471 387.438400
   6051   6054   6056     1   109.8000471 387.438400
   6052   6051   6054     1   109.5600471 388.275200
   6052   6051   6053     1   108.4600466 328.025600
   6053   6051   6054     1   109.5600471 388.275200
   6055   6054   6057     1   108.7700466 392.459200
   6055   6054   6056     1   107.5800459 329.699200
   6056   6054   6057     1   108.7700466 392.459200
   6057   6059   6060     1   106.5500460 417.563200
   6061   6064   6065     1   109.8000471 387.438400
   6061   6064   6066     1   109.8000471 387.438400
   6062   6061   6064     1   109.5600471 388.275200
   6062   6061   6063     1   108.4600466 328.025600
   6063   6061   6064     1   109.5600471 388.275200
   6065   6064   6067     1   108.7700466 392.459200
   6065   6064   6066     1   107.5800459 329.699200
   6066   6064   6067     1   108.7700466 392.459200
   6067   6069   6070     1   106.5500460 417.563200
   6072   6075   6076     1   109.8000471 387.438400
   6072   6075   6077     1   109.8000471 387.438400
   6073   6072   6075     1   109.5600471 388.275200
   6073   6072   6102     1   109.7800468 425.094400
   6073   6072   6074     1   108.4600466 328.025600
   6074   6072   6075     1   109.5600471 388.275200
   6074   6072   6102     1   109.7800468 425.094400
   6075   6078   6079     1   109.5600471 388.275200
   6075   6078   6080     1   109.5600471 388.275200
   6076   6075   6078     1   109.8000471 387.438400
   6076   6075   6077     1   107.5800459 329.699200
   6077   6075   6078     1   109.8000471 387.438400
   6079   6078   6081     1   109.8800469 414.216000
   6079   6078   6080     1   108.4600466 328.025600
   6080   6078   6081     1   109.8800469 414.216000
   6081   6082   6083     1   109.8800469 414.216000
   6081   6082   6084     1   109.8800469 414.216000
   6081   6092   6093     1   109.8800469 414.216000
   6081   6092   6094     1   109.8800469 414.216000
   6082   6085   6086     1   109.8000471 387.438400
   6082   6085   6087     1   109.8000471 387.438400
   6083   6082   6085     1   109.5600471 388.275200
   6083   6082   6084     1   108.4600466 328.025600
   6084   6082   6085     1   109.5600471 388.275200
   6086   6085   6088     1   108.7700466 392.459200
   6086   6085   6087     1   107.5800459 329.699200
   6087   6085   6088     1   108.7700466 392.459200
   6088   6090   6091     1   106.5500460 417.563200
   6092   6095   6096     1   109.8000471 387.438400
   6092   6095   6097     1   109.8000471 387.438400
   6093   6092   6095     1   109.5600471 388.275200
   6093   6092   6094     1   108.4600466 328.025600
   6094   6092   6095     1   109.5600471 388.275200
   6096   6095   6098     1   108.7700466 392.459200
   6096   6095   6097     1   107.5800459 329.699200
   6097   6095   6098     1   108.7700466 392.459200
   6098   6100   6101     1   106.5500460 417.563200
   6103   6106   6107     1   109.8000471 387.438400
   6103   6106   6108     1   109.8000471 387.438400
   6104   6103   6106     1   109.5600471 388.275200
   6104   6103   6133     1   109.7800468 425.094400
   6104   6103   6105     1   108.4600466 328.025600
   6105   6103   6106     1   109.5600471 388.275200
   6105   6103   6133     1   109.7800468 425.094400
   6106   6109   6110     1   109.5600471 388.275200
   6106   6109   6111     1   109.5600471 388.275200
   6107   6106   6109     1   109.8000471 387.438400
   6107   6106   6108     1   107.5800459 329.699200
   6108   6106   6109     1   109.8000471 387.438400
   6110   6109   6112     1   109.8800469 414.216000
   6110   6109   6111     1   108.4600466 328.025600
   6111   6109   6112     1   109.8800469 414.216000
   6112   6113   6114     1   109.8800469 414.216000
   6112   6113   6115     1   109.8800469 414.216000
   6112   6123   6124     1   109.8800469 414.216000
   6112   6123   6125     1   109.8800469 414.216000
   6113   6116   6117     1   109.8000471 387.438400
   6113   6116   6118     1   109.8000471 387.438400
   6114   6113   6116     1   109.5600471 388.275200
   6114   6113   6115     1   108.4600466 328.025600
   6115   6113   6116     1   109.5600471 388.275200
   6117   6116   6119     1   108.7700466 392.459200
   6117   6116   6118     1   107.5800459 329.699200
   6118   6116   6119     1   108.7700466 392.459200
   6119   6121   6122     1   106.5500460 417.563200
   6123   6126   6127     1   109.8000471 387.438400
   6123   6126   6128     1   109.8000471 387.438400
   6124   6123   6126     1   109.5600471 388.275200
   6124   6123   6125     1   108.4600466 328.025600
   6125   6123   6126     1   109.5600471 388.275200
   6127   6126   6129     1   108.7700466 392.459200
   6127   6126   6128     1   107.5800459 329.699200
   6128   6126   6129     1   108.7700466 392.459200
   6129   6131   6132     1   106.5500460 417.563200
   6134   6137   6138     1   109.8000471 387.438400
   6134   6137   6139     1   109.8000471 387.438400
   6135   6134   6137     1   109.5600471 388.275200
   6135   6134   6164     1   109.7800468 425.094400
   6135   6134   6136     1   108.4600466 328.025600
   6136   6134   6137     1   109.5600471 388.275200
   6136   6134   6164     1   109.7800468 425.094400
   6137   6140   6141     1   109.5600471 388.275200
   6137   6140   6142     1   109.5600471 388.275200
   6138   6137   6140     1   109.8000471 387.438400
   6138   6137   6139     1   107.5800459 329.699200
   6139   6137   6140     1   109.8000471 387.438400
   6141   6140   6143     1   109.8800469 414.216000
   6141   6140   6142     1   108.4600466 328.025600
   6142   6140   6143     1   109.8800469 414.216000
   6143   6144   6145     1   109.8800469 414.216000
   6143   6144   6146     1   109.8800469 414.216000
   6143   6154   6155     1   109.8800469 414.216000
   6143   6154   6156     1   109.8800469 414.216000
   6144   6147   6148     1   109.8000471 387.438400
   6144   6147   6149     1   109.8000471 387.438400
   6145   6144   6147     1   109.5600471 388.275200
   6145   6144   6146     1   108.4600466 328.025600
   6146   6144   6147     1   109.5600471 388.275200
   6148   6147   6150     1   108.7700466 392.459200
   6148   6147   6149     1   107.5800459 329.699200
   6149   6147   6150     1   108.7700466 392.459200
   6150   6152   6153     1   106.5500460 417.563200
   6154   6157   6158     1   109.8000471 387.438400
   6154   6157   6159     1   109.8000471 387.438400
   6155   6154   6157     1   109.5600471 388.275200
   6155   6154   6156     1   108.4600466 328.025600
   6156   6154   6157     1   109.5600471 388.275200
   6158   6157   6160     1   108.7700466 392.459200
   6158   6157   6159     1   107.5800459 329.699200
   6159   6157   6160     1   108.7700466 392.459200
   6160   6162   6163     1   106.5500460 417.563200
   6165   6168   6169     1   109.8000471 387.438400
   6165   6168   6170     1   109.8000471 387.438400
   6166   6165   6168     1   109.5600471 388.275200
   6166   6165   6195     1   109.7800468 425.094400
   6166   6165   6167     1   108.4600466 328.025600
   6167   6165   6168     1   109.5600471 388.275200
   6167   6165   6195     1   109.7800468 425.094400
   6168   6171   6172     1   109.5600471 388.275200
   6168   6171   6173     1   109.5600471 388.275200
   6169   6168   6171     1   109.8000471 387.438400
   6169   6168   6170     1   107.5800459 329.699200
   6170   6168   6171     1   109.8000471 387.438400
   6172   6171   6174     1   109.8800469 414.216000
   6172   6171   6173     1   108.4600466 328.025600
   6173   6171   6174     1   109.8800469 414.216000
   6174   6175   6176     1   109.8800469 414.216000
   6174   6175   6177     1   109.8800469 414.216000
   6174   6185   6186     1   109.8800469 414.216000
   6174   6185   6187     1   109.8800469 414.216000
   6175   6178   6179     1   109.8000471 387.438400
   6175   6178   6180     1   109.8000471 387.438400
   6176   6175   6178     1   109.5600471 388.275200
   6176   6175   6177     1   108.4600466 328.025600
   6177   6175   6178     1   109.5600471 388.275200
   6179   6178   6181     1   108.7700466 392.459200
   6179   6178   6180     1   107.5800459 329.699200
   6180   6178   6181     1   108.7700466 392.459200
   6181   6183   6184     1   106.5500460 417.563200
   6185   6188   6189     1   109.8000471 387.438400
   6185   6188   6190     1   109.8000471 387.438400
   6186   6185   6188     1   109.5600471 388.275200
   6186   6185   6187     1   108.4600466 328.025600
   6187   6185   6188     1   109.5600471 388.275200
   6189   6188   6191     1   108.7700466 392.459200
   6189   6188   6190     1   107.5800459 329.699200
   6190   6188   6191     1   108.7700466 392.459200
   6191   6193   6194     1   106.5500460 417.563200
   6196   6199   6200     1   109.8000471 387.438400
   6196   6199   6201     1   109.8000471 387.438400
   6197   6196   6199     1   109.5600471 388.275200
   6197   6196   6226     1   109.7800468 425.094400
   6197   6196   6198     1   108.4600466 328.025600
   6198   6196   6199     1   109.5600471 388.275200
   6198   6196   6226     1   109.7800468 425.094400
   6199   6202   6203     1   109.5600471 388.275200
   6199   6202   6204     1   109.5600471 388.275200
   6200   6199   6202     1   109.8000471 387.438400
   6200   6199   6201     1   107.5800459 329.699200
   6201   6199   6202     1   109.8000471 387.438400
   6203   6202   6205     1   109.8800469 414.216000
   6203   6202   6204     1   108.4600466 328.025600
   6204   6202   6205     1   109.8800469 414.216000
   6205   6206   6207     1   109.8800469 414.216000
   6205   6206   6208     1   109.8800469 414.216000
   6205   6216   6217     1   109.8800469 414.216000
   6205   6216   6218     1   109.8800469 414.216000
   6206   6209   6210     1   109.8000471 387.438400
   6206   6209   6211     1   109.8000471 387.438400
   6207   6206   6209     1   109.5600471 388.275200
   6207   6206   6208     1   108.4600466 328.025600
   6208   6206   6209     1   109.5600471 388.275200
   6210   6209   6212     1   108.7700466 392.459200
   6210   6209   6211     1   107.5800459 329.699200
   6211   6209   6212     1   108.7700466 392.459200
   6212   6214   6215     1   106.5500460 417.563200
   6216   6219   6220     1   109.8000471 387.438400
   6216   6219   6221     1   109.8000471 387.438400
   6217   6216   6219     1   109.5600471 388.275200
   6217   6216   6218     1   108.4600466 328.025600
   6218   6216   6219     1   109.5600471 388.275200
   6220   6219   6222     1   108.7700466 392.459200
   6220   6219   6221     1   107.5800459 329.699200
   6221   6219   6222     1   108.7700466 392.459200
   6222   6224   6225     1   106.5500460 417.563200
   6227   6230   6231     1   109.8000471 387.438400
   6227   6230   6232     1   109.8000471 387.438400
   6228   6227   6230     1   109.5600471 388.275200
   6228   6227   6257     1   109.7800468 425.094400
   6228   6227   6229     1   108.4600466 328.025600
   6229   6227   6230     1   109.5600471 388.275200
   6229   6227   6257     1   109.7800468 425.094400
   6230   6233   6234     1   109.5600471 388.275200
   6230   6233   6235     1   109.5600471 388.275200
   6231   6230   6233     1   109.8000471 387.438400
   6231   6230   6232     1   107.5800459 329.699200
   6232   6230   6233     1   109.8000471 387.438400
   6234   6233   6236     1   109.8800469 414.216000
   6234   6233   6235     1   108.4600466 328.025600
   6235   6233   6236     1   109.8800469 414.216000
   6236   6237   6238     1   109.8800469 414.216000
   6236   6237   6239     1   109.8800469 414.216000
   6236   6247   6248     1   109.8800469 414.216000
   6236   6247   6249     1   109.8800469 414.216000
   6237   6240   6241     1   109.8000471 387.438400
   6237   6240   6242     1   109.8000471 387.438400
   6238   6237   6240     1   109.5600471 388.275200
   6238   6237   6239     1   108.4600466 328.025600
   6239   6237   6240     1   109.5600471 388.275200
   6241   6240   6243     1   108.7700466 392.459200
   6241   6240   6242     1   107.5800459 329.699200
   6242   6240   6243     1   108.7700466 392.459200
   6243   6245   6246     1   106.5500460 417.563200
   6247   6250   6251     1   109.8000471 387.438400
   6247   6250   6252     1   109.8000471 387.438400
   6248   6247   6250     1   109.5600471 388.275200
   6248   6247   6249     1   108.4600466 328.025600
   6249   6247   6250     1   109.5600471 388.275200
   6251   6250   6253     1   108.7700466 392.459200
   6251   6250   6252     1   107.5800459 329.699200
   6252   6250   6253     1   108.7700466 392.459200
   6253   6255   6256     1   106.5500460 417.563200
   6258   6261   6262     1   109.8000471 387.438400
   6258   6261   6263     1   109.8000471 387.438400
   6259   6258   6261     1   109.5600471 388.275200
   6259   6258   6288     1   109.7800468 425.094400
   6259   6258   6260     1   108.4600466 328.025600
   6260   6258   6261     1   109.5600471 388.275200
   6260   6258   6288     1   109.7800468 425.094400
   6261   6264   6265     1   109.5600471 388.275200
   6261   6264   6266     1   109.5600471 388.275200
   6262   6261   6264     1   109.8000471 387.438400
   6262   6261   6263     1   107.5800459 329.699200
   6263   6261   6264     1   109.8000471 387.438400
   6265   6264   6267     1   109.8800469 414.216000
   6265   6264   6266     1   108.4600466 328.025600
   6266   6264   6267     1   109.8800469 414.216000
   6267   6268   6269     1   109.8800469 414.216000
   6267   6268   6270     1   109.8800469 414.216000
   6267   6278   6279     1   109.8800469 414.216000
   6267   6278   6280     1   109.8800469 414.216000
   6268   6271   6272     1   109.8000471 387.438400
   6268   6271   6273     1   109.8000471 387.438400
   6269   6268   6271     1   109.5600471 388.275200
   6269   6268   6270     1   108.4600466 328.025600
   6270   6268   6271     1   109.5600471 388.275200
   6272   6271   6274     1   108.7700466 392.459200
   6272   6271   6273     1   107.5800459 329.699200
   6273   6271   6274     1   108.7700466 392.459200
   6274   6276   6277     1   106.5500460 417.563200
   6278   6281   6282     1   109.8000471 387.438400
   6278   6281   6283     1   109.8000471 387.438400
   6279   6278   6281     1   109.5600471 388.275200
   6279   6278   6280     1   108.4600466 328.025600
   6280   6278   6281     1   109.5600471 388.275200
   6282   6281   6284     1   108.7700466 392.459200
   6282   6281   6283     1   107.5800459 329.699200
   6283   6281   6284     1   108.7700466 392.459200
   6284   6286   6287     1   106.5500460 417.563200
   6289   6292   6293     1   109.8000471 387.438400
   6289   6292   6294     1   109.8000471 387.438400
   6290   6289   6292     1   109.5600471 388.275200
   6290   6289   6319     1   109.7800468 425.094400
   6290   6289   6291     1   108.4600466 328.025600
   6291   6289   6292     1   109.5600471 388.275200
   6291   6289   6319     1   109.7800468 425.094400
   6292   6295   6296     1   109.5600471 388.275200
   6292   6295   6297     1   109.5600471 388.275200
   6293   6292   6295     1   109.8000471 387.438400
   6293   6292   6294     1   107.5800459 329.699200
   6294   6292   6295     1   109.8000471 387.438400
   6296   6295   6298     1   109.8800469 414.216000
   6296   6295   6297     1   108.4600466 328.025600
   6297   6295   6298     1   109.8800469 414.216000
   6298   6299   6300     1   109.8800469 414.216000
   6298   6299   6301     1   109.8800469 414.216000
   6298   6309   6310     1   109.8800469 414.216000
   6298   6309   6311     1   109.8800469 414.216000
   6299   6302   6303     1   109.8000471 387.438400
   6299   6302   6304     1   109.8000471 387.438400
   6300   6299   6302     1   109.5600471 388.275200
   6300   6299   6301     1   108.4600466 328.025600
   6301   6299   6302     1   109.5600471 388.275200
   6303   6302   6305     1   108.7700466 392.459200
   6303   6302   6304     1   107.5800459 329.699200
   6304   6302   6305     1   108.7700466 392.459200
   6305   6307   6308     1   106.5500460 417.563200
   6309   6312   6313     1   109.8000471 387.438400
   6309   6312   6314     1   109.8000471 387.438400
   6310   6309   6312     1   109.5600471 388.275200
   6310   6309   6311     1   108.4600466 328.025600
   6311   6309   6312     1   109.5600471 388.275200
   6313   6312   6315     1   108.7700466 392.459200
   6313   6312   6314     1   107.5800459 329.699200
   6314   6312   6315     1   108.7700466 392.459200
   6315   6317   6318     1   106.5500460 417.563200
   6320   6323   6324     1   109.8000471 387.438400
   6320   6323   6325     1   109.8000471 387.438400
   6321   6320   6323     1   109.5600471 388.275200
   6321   6320   6350     1   109.7800468 425.094400
   6321   6320   6322     1   108.4600466 328.025600
   6322   6320   6323     1   109.5600471 388.275200
   6322   6320   6350     1   109.7800468 425.094400
   6323   6326   6327     1   109.5600471 388.275200
   6323   6326   6328     1   109.5600471 388.275200
   6324   6323   6326     1   109.8000471 387.438400
   6324   6323   6325     1   107.5800459 329.699200
   6325   6323   6326     1   109.8000471 387.438400
   6327   6326   6329     1   109.8800469 414.216000
   6327   6326   6328     1   108.4600466 328.025600
   6328   6326   6329     1   109.8800469 414.216000
   6329   6330   6331     1   109.8800469 414.216000
   6329   6330   6332     1   109.8800469 414.216000
   6329   6340   6341     1   109.8800469 414.216000
   6329   6340   6342     1   109.8800469 414.216000
   6330   6333   6334     1   109.8000471 387.438400
   6330   6333   6335     1   109.8000471 387.438400
   6331   6330   6333     1   109.5600471 388.275200
   6331   6330   6332     1   108.4600466 328.025600
   6332   6330   6333     1   109.5600471 388.275200
   6334   6333   6336     1   108.7700466 392.459200
   6334   6333   6335     1   107.5800459 329.699200
   6335   6333   6336     1   108.7700466 392.459200
   6336   6338   6339     1   106.5500460 417.563200
   6340   6343   6344     1   109.8000471 387.438400
   6340   6343   6345     1   109.8000471 387.438400
   6341   6340   6343     1   109.5600471 388.275200
   6341   6340   6342     1   108.4600466 328.025600
   6342   6340   6343     1   109.5600471 388.275200
   6344   6343   6346     1   108.7700466 392.459200
   6344   6343   6345     1   107.5800459 329.699200
   6345   6343   6346     1   108.7700466 392.459200
   6346   6348   6349     1   106.5500460 417.563200
   6351   6354   6355     1   109.8000471 387.438400
   6351   6354   6356     1   109.8000471 387.438400
   6352   6351   6354     1   109.5600471 388.275200
   6352   6351   6381     1   109.7800468 425.094400
   6352   6351   6353     1   108.4600466 328.025600
   6353   6351   6354     1   109.5600471 388.275200
   6353   6351   6381     1   109.7800468 425.094400
   6354   6357   6358     1   109.5600471 388.275200
   6354   6357   6359     1   109.5600471 388.275200
   6355   6354   6357     1   109.8000471 387.438400
   6355   6354   6356     1   107.5800459 329.699200
   6356   6354   6357     1   109.8000471 387.438400
   6358   6357   6360     1   109.8800469 414.216000
   6358   6357   6359     1   108.4600466 328.025600
   6359   6357   6360     1   109.8800469 414.216000
   6360   6361   6362     1   109.8800469 414.216000
   6360   6361   6363     1   109.8800469 414.216000
   6360   6371   6372     1   109.8800469 414.216000
   6360   6371   6373     1   109.8800469 414.216000
   6361   6364   6365     1   109.8000471 387.438400
   6361   6364   6366     1   109.8000471 387.438400
   6362   6361   6364     1   109.5600471 388.275200
   6362   6361   6363     1   108.4600466 328.025600
   6363   6361   6364     1   109.5600471 388.275200
   6365   6364   6367     1   108.7700466 392.459200
   6365   6364   6366     1   107.5800459 329.699200
   6366   6364   6367     1   108.7700466 392.459200
   6367   6369   6370     1   106.5500460 417.563200
   6371   6374   6375     1   109.8000471 387.438400
   6371   6374   6376     1   109.8000471 387.438400
   6372   6371   6374     1   109.5600471 388.275200
   6372   6371   6373     1   108.4600466 328.025600
   6373   6371   6374     1   109.5600471 388.275200
   6375   6374   6377     1   108.7700466 392.459200
   6375   6374   6376     1   107.5800459 329.699200
   6376   6374   6377     1   108.7700466 392.459200
   6377   6379   6380     1   106.5500460 417.563200
   6382   6385   6386     1   109.8000471 387.438400
   6382   6385   6387     1   109.8000471 387.438400
   6383   6382   6385     1   109.5600471 388.275200
   6383   6382   6412     1   109.7800468 425.094400
   6383   6382   6384     1   108.4600466 328.025600
   6384   6382   6385     1   109.5600471 388.275200
   6384   6382   6412     1   109.7800468 425.094400
   6385   6388   6389     1   109.5600471 388.275200
   6385   6388   6390     1   109.5600471 388.275200
   6386   6385   6388     1   109.8000471 387.438400
   6386   6385   6387     1   107.5800459 329.699200
   6387   6385   6388     1   109.8000471 387.438400
   6389   6388   6391     1   109.8800469 414.216000
   6389   6388   6390     1   108.4600466 328.025600
   6390   6388   6391     1   109.8800469 414.216000
   6391   6392   6393     1   109.8800469 414.216000
   6391   6392   6394     1   109.8800469 414.216000
   6391   6402   6403     1   109.8800469 414.216000
   6391   6402   6404     1   109.8800469 414.216000
   6392   6395   6396     1   109.8000471 387.438400
   6392   6395   6397     1   109.8000471 387.438400
   6393   6392   6395     1   109.5600471 388.275200
   6393   6392   6394     1   108.4600466 328.025600
   6394   6392   6395     1   109.5600471 388.275200
   6396   6395   6398     1   108.7700466 392.459200
   6396   6395   6397     1   107.5800459 329.699200
   6397   6395   6398     1   108.7700466 392.459200
   6398   6400   6401     1   106.5500460 417.563200
   6402   6405   6406     1   109.8000471 387.438400
   6402   6405   6407     1   109.8000471 387.438400
   6403   6402   6405     1   109.5600471 388.275200
   6403   6402   6404     1   108.4600466 328.025600
   6404   6402   6405     1   109.5600471 388.275200
   6406   6405   6408     1   108.7700466 392.459200
   6406   6405   6407     1   107.5800459 329.699200
   6407   6405   6408     1   108.7700466 392.459200
   6408   6410   6411     1   106.5500460 417.563200
   6413   6416   6417     1   109.8000471 387.438400
   6413   6416   6418     1   109.8000471 387.438400
   6414   6413   6416     1   109.5600471 388.275200
   6414   6413   6443     1   109.7800468 425.094400
   6414   6413   6415     1   108.4600466 328.025600
   6415   6413   6416     1   109.5600471 388.275200
   6415   6413   6443     1   109.7800468 425.094400
   6416   6419   6420     1   109.5600471 388.275200
   6416   6419   6421     1   109.5600471 388.275200
   6417   6416   6419     1   109.8000471 387.438400
   6417   6416   6418     1   107.5800459 329.699200
   6418   6416   6419     1   109.8000471 387.438400
   6420   6419   6422     1   109.8800469 414.216000
   6420   6419   6421     1   108.4600466 328.025600
   6421   6419   6422     1   109.8800469 414.216000
   6422   6423   6424     1   109.8800469 414.216000
   6422   6423   6425     1   109.8800469 414.216000
   6422   6433   6434     1   109.8800469 414.216000
   6422   6433   6435     1   109.8800469 414.216000
   6423   6426   6427     1   109.8000471 387.438400
   6423   6426   6428     1   109.8000471 387.438400
   6424   6423   6426     1   109.5600471 388.275200
   6424   6423   6425     1   108.4600466 328.025600
   6425   6423   6426     1   109.5600471 388.275200
   6427   6426   6429     1   108.7700466 392.459200
   6427   6426   6428     1   107.5800459 329.699200
   6428   6426   6429     1   108.7700466 392.459200
   6429   6431   6432     1   106.5500460 417.563200
   6433   6436   6437     1   109.8000471 387.438400
   6433   6436   6438     1   109.8000471 387.438400
   6434   6433   6436     1   109.5600471 388.275200
   6434   6433   6435     1   108.4600466 328.025600
   6435   6433   6436     1   109.5600471 388.275200
   6437   6436   6439     1   108.7700466 392.459200
   6437   6436   6438     1   107.5800459 329.699200
   6438   6436   6439     1   108.7700466 392.459200
   6439   6441   6442     1   106.5500460 417.563200
   6444   6447   6448     1   109.8000471 387.438400
   6444   6447   6449     1   109.8000471 387.438400
   6445   6444   6447     1   109.5600471 388.275200
   6445   6444   6474     1   109.7800468 425.094400
   6445   6444   6446     1   108.4600466 328.025600
   6446   6444   6447     1   109.5600471 388.275200
   6446   6444   6474     1   109.7800468 425.094400
   6447   6450   6451     1   109.5600471 388.275200
   6447   6450   6452     1   109.5600471 388.275200
   6448   6447   6450     1   109.8000471 387.438400
   6448   6447   6449     1   107.5800459 329.699200
   6449   6447   6450     1   109.8000471 387.438400
   6451   6450   6453     1   109.8800469 414.216000
   6451   6450   6452     1   108.4600466 328.025600
   6452   6450   6453     1   109.8800469 414.216000
   6453   6454   6455     1   109.8800469 414.216000
   6453   6454   6456     1   109.8800469 414.216000
   6453   6464   6465     1   109.8800469 414.216000
   6453   6464   6466     1   109.8800469 414.216000
   6454   6457   6458     1   109.8000471 387.438400
   6454   6457   6459     1   109.8000471 387.438400
   6455   6454   6457     1   109.5600471 388.275200
   6455   6454   6456     1   108.4600466 328.025600
   6456   6454   6457     1   109.5600471 388.275200
   6458   6457   6460     1   108.7700466 392.459200
   6458   6457   6459     1   107.5800459 329.699200
   6459   6457   6460     1   108.7700466 392.459200
   6460   6462   6463     1   106.5500460 417.563200
   6464   6467   6468     1   109.8000471 387.438400
   6464   6467   6469     1   109.8000471 387.438400
   6465   6464   6467     1   109.5600471 388.275200
   6465   6464   6466     1   108.4600466 328.025600
   6466   6464   6467     1   109.5600471 388.275200
   6468   6467   6470     1   108.7700466 392.459200
   6468   6467   6469     1   107.5800459 329.699200
   6469   6467   6470     1   108.7700466 392.459200
   6470   6472   6473     1   106.5500460 417.563200
   6475   6478   6479     1   109.8000471 387.438400
   6475   6478   6480     1   109.8000471 387.438400
   6476   6475   6478     1   109.5600471 388.275200
   6476   6475   6505     1   109.7800468 425.094400
   6476   6475   6477     1   108.4600466 328.025600
   6477   6475   6478     1   109.5600471 388.275200
   6477   6475   6505     1   109.7800468 425.094400
   6478   6481   6482     1   109.5600471 388.275200
   6478   6481   6483     1   109.5600471 388.275200
   6479   6478   6481     1   109.8000471 387.438400
   6479   6478   6480     1   107.5800459 329.699200
   6480   6478   6481     1   109.8000471 387.438400
   6482   6481   6484     1   109.8800469 414.216000
   6482   6481   6483     1   108.4600466 328.025600
   6483   6481   6484     1   109.8800469 414.216000
   6484   6485   6486     1   109.8800469 414.216000
   6484   6485   6487     1   109.8800469 414.216000
   6484   6495   6496     1   109.8800469 414.216000
   6484   6495   6497     1   109.8800469 414.216000
   6485   6488   6489     1   109.8000471 387.438400
   6485   6488   6490     1   109.8000471 387.438400
   6486   6485   6488     1   109.5600471 388.275200
   6486   6485   6487     1   108.4600466 328.025600
   6487   6485   6488     1   109.5600471 388.275200
   6489   6488   6491     1   108.7700466 392.459200
   6489   6488   6490     1   107.5800459 329.699200
   6490   6488   6491     1   108.7700466 392.459200
   6491   6493   6494     1   106.5500460 417.563200
   6495   6498   6499     1   109.8000471 387.438400
   6495   6498   6500     1   109.8000471 387.438400
   6496   6495   6498     1   109.5600471 388.275200
   6496   6495   6497     1   108.4600466 328.025600
   6497   6495   6498     1   109.5600471 388.275200
   6499   6498   6501     1   108.7700466 392.459200
   6499   6498   6500     1   107.5800459 329.699200
   6500   6498   6501     1   108.7700466 392.459200
   6501   6503   6504     1   106.5500460 417.563200
   6506   6509   6510     1   109.8000471 387.438400
   6506   6509   6511     1   109.8000471 387.438400
   6507   6506   6509     1   109.5600471 388.275200
   6507   6506   6536     1   109.7800468 425.094400
   6507   6506   6508     1   108.4600466 328.025600
   6508   6506   6509     1   109.5600471 388.275200
   6508   6506   6536     1   109.7800468 425.094400
   6509   6512   6513     1   109.5600471 388.275200
   6509   6512   6514     1   109.5600471 388.275200
   6510   6509   6512     1   109.8000471 387.438400
   6510   6509   6511     1   107.5800459 329.699200
   6511   6509   6512     1   109.8000471 387.438400
   6513   6512   6515     1   109.8800469 414.216000
   6513   6512   6514     1   108.4600466 328.025600
   6514   6512   6515     1   109.8800469 414.216000
   6515   6516   6517     1   109.8800469 414.216000
   6515   6516   6518     1   109.8800469 414.216000
   6515   6526   6527     1   109.8800469 414.216000
   6515   6526   6528     1   109.8800469 414.216000
   6516   6519   6520     1   109.8000471 387.438400
   6516   6519   6521     1   109.8000471 387.438400
   6517   6516   6519     1   109.5600471 388.275200
   6517   6516   6518     1   108.4600466 328.025600
   6518   6516   6519     1   109.5600471 388.275200
   6520   6519   6522     1   108.7700466 392.459200
   6520   6519   6521     1   107.5800459 329.699200
   6521   6519   6522     1   108.7700466 392.459200
   6522   6524   6525     1   106.5500460 417.563200
   6526   6529   6530     1   109.8000471 387.438400
   6526   6529   6531     1   109.8000471 387.438400
   6527   6526   6529     1   109.5600471 388.275200
   6527   6526   6528     1   108.4600466 328.025600
   6528   6526   6529     1   109.5600471 388.275200
   6530   6529   6532     1   108.7700466 392.459200
   6530   6529   6531     1   107.5800459 329.699200
   6531   6529   6532     1   108.7700466 392.459200
   6532   6534   6535     1   106.5500460 417.563200
   6537   6540   6541     1   109.8000471 387.438400
   6537   6540   6542     1   109.8000471 387.438400
   6538   6537   6540     1   109.5600471 388.275200
   6538   6537   6567     1   109.7800468 425.094400
   6538   6537   6539     1   108.4600466 328.025600
   6539   6537   6540     1   109.5600471 388.275200
   6539   6537   6567     1   109.7800468 425.094400
   6540   6543   6544     1   109.5600471 388.275200
   6540   6543   6545     1   109.5600471 388.275200
   6541   6540   6543     1   109.8000471 387.438400
   6541   6540   6542     1   107.5800459 329.699200
   6542   6540   6543     1   109.8000471 387.438400
   6544   6543   6546     1   109.8800469 414.216000
   6544   6543   6545     1   108.4600466 328.025600
   6545   6543   6546     1   109.8800469 414.216000
   6546   6547   6548     1   109.8800469 414.216000
   6546   6547   6549     1   109.8800469 414.216000
   6546   6557   6558     1   109.8800469 414.216000
   6546   6557   6559     1   109.8800469 414.216000
   6547   6550   6551     1   109.8000471 387.438400
   6547   6550   6552     1   109.8000471 387.438400
   6548   6547   6550     1   109.5600471 388.275200
   6548   6547   6549     1   108.4600466 328.025600
   6549   6547   6550     1   109.5600471 388.275200
   6551   6550   6553     1   108.7700466 392.459200
   6551   6550   6552     1   107.5800459 329.699200
   6552   6550   6553     1   108.7700466 392.459200
   6553   6555   6556     1   106.5500460 417.563200
   6557   6560   6561     1   109.8000471 387.438400
   6557   6560   6562     1   109.8000471 387.438400
   6558   6557   6560     1   109.5600471 388.275200
   6558   6557   6559     1   108.4600466 328.025600
   6559   6557   6560     1   109.5600471 388.275200
   6561   6560   6563     1   108.7700466 392.459200
   6561   6560   6562     1   107.5800459 329.699200
   6562   6560   6563     1   108.7700466 392.459200
   6563   6565   6566     1   106.5500460 417.563200
   6568   6571   6572     1   109.8000471 387.438400
   6568   6571   6573     1   109.8000471 387.438400
   6569   6568   6571     1   109.5600471 388.275200
   6569   6568   6598     1   109.7800468 425.094400
   6569   6568   6570     1   108.4600466 328.025600
   6570   6568   6571     1   109.5600471 388.275200
   6570   6568   6598     1   109.7800468 425.094400
   6571   6574   6575     1   109.5600471 388.275200
   6571   6574   6576     1   109.5600471 388.275200
   6572   6571   6574     1   109.8000471 387.438400
   6572   6571   6573     1   107.5800459 329.699200
   6573   6571   6574     1   109.8000471 387.438400
   6575   6574   6577     1   109.8800469 414.216000
   6575   6574   6576     1   108.4600466 328.025600
   6576   6574   6577     1   109.8800469 414.216000
   6577   6578   6579     1   109.8800469 414.216000
   6577   6578   6580     1   109.8800469 414.216000
   6577   6588   6589     1   109.8800469 414.216000
   6577   6588   6590     1   109.8800469 414.216000
   6578   6581   6582     1   109.8000471 387.438400
   6578   6581   6583     1   109.8000471 387.438400
   6579   6578   6581     1   109.5600471 388.275200
   6579   6578   6580     1   108.4600466 328.025600
   6580   6578   6581     1   109.5600471 388.275200
   6582   6581   6584     1   108.7700466 392.459200
   6582   6581   6583     1   107.5800459 329.699200
   6583   6581   6584     1   108.7700466 392.459200
   6584   6586   6587     1   106.5500460 417.563200
   6588   6591   6592     1   109.8000471 387.438400
   6588   6591   6593     1   109.8000471 387.438400
   6589   6588   6591     1   109.5600471 388.275200
   6589   6588   6590     1   108.4600466 328.025600
   6590   6588   6591     1   109.5600471 388.275200
   6592   6591   6594     1   108.7700466 392.459200
   6592   6591   6593     1   107.5800459 329.699200
   6593   6591   6594     1   108.7700466 392.459200
   6594   6596   6597     1   106.5500460 417.563200
   6599   6602   6603     1   109.8000471 387.438400
   6599   6602   6604     1   109.8000471 387.438400
   6600   6599   6602     1   109.5600471 388.275200
   6600   6599   6629     1   109.7800468 425.094400
   6600   6599   6601     1   108.4600466 328.025600
   6601   6599   6602     1   109.5600471 388.275200
   6601   6599   6629     1   109.7800468 425.094400
   6602   6605   6606     1   109.5600471 388.275200
   6602   6605   6607     1   109.5600471 388.275200
   6603   6602   6605     1   109.8000471 387.438400
   6603   6602   6604     1   107.5800459 329.699200
   6604   6602   6605     1   109.8000471 387.438400
   6606   6605   6608     1   109.8800469 414.216000
   6606   6605   6607     1   108.4600466 328.025600
   6607   6605   6608     1   109.8800469 414.216000
   6608   6609   6610     1   109.8800469 414.216000
   6608   6609   6611     1   109.8800469 414.216000
   6608   6619   6620     1   109.8800469 414.216000
   6608   6619   6621     1   109.8800469 414.216000
   6609   6612   6613     1   109.8000471 387.438400
   6609   6612   6614     1   109.8000471 387.438400
   6610   6609   6612     1   109.5600471 388.275200
   6610   6609   6611     1   108.4600466 328.025600
   6611   6609   6612     1   109.5600471 388.275200
   6613   6612   6615     1   108.7700466 392.459200
   6613   6612   6614     1   107.5800459 329.699200
   6614   6612   6615     1   108.7700466 392.459200
   6615   6617   6618     1   106.5500460 417.563200
   6619   6622   6623     1   109.8000471 387.438400
   6619   6622   6624     1   109.8000471 387.438400
   6620   6619   6622     1   109.5600471 388.275200
   6620   6619   6621     1   108.4600466 328.025600
   6621   6619   6622     1   109.5600471 388.275200
   6623   6622   6625     1   108.7700466 392.459200
   6623   6622   6624     1   107.5800459 329.699200
   6624   6622   6625     1   108.7700466 392.459200
   6625   6627   6628     1   106.5500460 417.563200
   6630   6633   6634     1   109.8000471 387.438400
   6630   6633   6635     1   109.8000471 387.438400
   6631   6630   6633     1   109.5600471 388.275200
   6631   6630   6660     1   109.7800468 425.094400
   6631   6630   6632     1   108.4600466 328.025600
   6632   6630   6633     1   109.5600471 388.275200
   6632   6630   6660     1   109.7800468 425.094400
   6633   6636   6637     1   109.5600471 388.275200
   6633   6636   6638     1   109.5600471 388.275200
   6634   6633   6636     1   109.8000471 387.438400
   6634   6633   6635     1   107.5800459 329.699200
   6635   6633   6636     1   109.8000471 387.438400
   6637   6636   6639     1   109.8800469 414.216000
   6637   6636   6638     1   108.4600466 328.025600
   6638   6636   6639     1   109.8800469 414.216000
   6639   6640   6641     1   109.8800469 414.216000
   6639   6640   6642     1   109.8800469 414.216000
   6639   6650   6651     1   109.8800469 414.216000
   6639   6650   6652     1   109.8800469 414.216000
   6640   6643   6644     1   109.8000471 387.438400
   6640   6643   6645     1   109.8000471 387.438400
   6641   6640   6643     1   109.5600471 388.275200
   6641   6640   6642     1   108.4600466 328.025600
   6642   6640   6643     1   109.5600471 388.275200
   6644   6643   6646     1   108.7700466 392.459200
   6644   6643   6645     1   107.5800459 329.699200
   6645   6643   6646     1   108.7700466 392.459200
   6646   6648   6649     1   106.5500460 417.563200
   6650   6653   6654     1   109.8000471 387.438400
   6650   6653   6655     1   109.8000471 387.438400
   6651   6650   6653     1   109.5600471 388.275200
   6651   6650   6652     1   108.4600466 328.025600
   6652   6650   6653     1   109.5600471 388.275200
   6654   6653   6656     1   108.7700466 392.459200
   6654   6653   6655     1   107.5800459 329.699200
   6655   6653   6656     1   108.7700466 392.459200
   6656   6658   6659     1   106.5500460 417.563200
   6661   6664   6665     1   109.8000471 387.438400
   6661   6664   6666     1   109.8000471 387.438400
   6662   6661   6664     1   109.5600471 388.275200
   6662   6661   6691     1   109.7800468 425.094400
   6662   6661   6663     1   108.4600466 328.025600
   6663   6661   6664     1   109.5600471 388.275200
   6663   6661   6691     1   109.7800468 425.094400
   6664   6667   6668     1   109.5600471 388.275200
   6664   6667   6669     1   109.5600471 388.275200
   6665   6664   6667     1   109.8000471 387.438400
   6665   6664   6666     1   107.5800459 329.699200
   6666   6664   6667     1   109.8000471 387.438400
   6668   6667   6670     1   109.8800469 414.216000
   6668   6667   6669     1   108.4600466 328.025600
   6669   6667   6670     1   109.8800469 414.216000
   6670   6671   6672     1   109.8800469 414.216000
   6670   6671   6673     1   109.8800469 414.216000
   6670   6681   6682     1   109.8800469 414.216000
   6670   6681   6683     1   109.8800469 414.216000
   6671   6674   6675     1   109.8000471 387.438400
   6671   6674   6676     1   109.8000471 387.438400
   6672   6671   6674     1   109.5600471 388.275200
   6672   6671   6673     1   108.4600466 328.025600
   6673   6671   6674     1   109.5600471 388.275200
   6675   6674   6677     1   108.7700466 392.459200
   6675   6674   6676     1   107.5800459 329.699200
   6676   6674   6677     1   108.7700466 392.459200
   6677   6679   6680     1   106.5500460 417.563200
   6681   6684   6685     1   109.8000471 387.438400
   6681   6684   6686     1   109.8000471 387.438400
   6682   6681   6684     1   109.5600471 388.275200
   6682   6681   6683     1   108.4600466 328.025600
   6683   6681   6684     1   109.5600471 388.275200
   6685   6684   6687     1   108.7700466 392.459200
   6685   6684   6686     1   107.5800459 329.699200
   6686   6684   6687     1   108.7700466 392.459200
   6687   6689   6690     1   106.5500460 417.563200
   6692   6695   6696     1   109.8000471 387.438400
   6692   6695   6697     1   109.8000471 387.438400
   6693   6692   6695     1   109.5600471 388.275200
   6693   6692   6722     1   109.7800468 425.094400
   6693   6692   6694     1   108.4600466 328.025600
   6694   6692   6695     1   109.5600471 388.275200
   6694   6692   6722     1   109.7800468 425.094400
   6695   6698   6699     1   109.5600471 388.275200
   6695   6698   6700     1   109.5600471 388.275200
   6696   6695   6698     1   109.8000471 387.438400
   6696   6695   6697     1   107.5800459 329.699200
   6697   6695   6698     1   109.8000471 387.438400
   6699   6698   6701     1   109.8800469 414.216000
   6699   6698   6700     1   108.4600466 328.025600
   6700   6698   6701     1   109.8800469 414.216000
   6701   6702   6703     1   109.8800469 414.216000
   6701   6702   6704     1   109.8800469 414.216000
   6701   6712   6713     1   109.8800469 414.216000
   6701   6712   6714     1   109.8800469 414.216000
   6702   6705   6706     1   109.8000471 387.438400
   6702   6705   6707     1   109.8000471 387.438400
   6703   6702   6705     1   109.5600471 388.275200
   6703   6702   6704     1   108.4600466 328.025600
   6704   6702   6705     1   109.5600471 388.275200
   6706   6705   6708     1   108.7700466 392.459200
   6706   6705   6707     1   107.5800459 329.699200
   6707   6705   6708     1   108.7700466 392.459200
   6708   6710   6711     1   106.5500460 417.563200
   6712   6715   6716     1   109.8000471 387.438400
   6712   6715   6717     1   109.8000471 387.438400
   6713   6712   6715     1   109.5600471 388.275200
   6713   6712   6714     1   108.4600466 328.025600
   6714   6712   6715     1   109.5600471 388.275200
   6716   6715   6718     1   108.7700466 392.459200
   6716   6715   6717     1   107.5800459 329.699200
   6717   6715   6718     1   108.7700466 392.459200
   6718   6720   6721     1   106.5500460 417.563200
   6723   6726   6727     1   109.8000471 387.438400
   6723   6726   6728     1   109.8000471 387.438400
   6724   6723   6726     1   109.5600471 388.275200
   6724   6723   6753     1   109.7800468 425.094400
   6724   6723   6725     1   108.4600466 328.025600
   6725   6723   6726     1   109.5600471 388.275200
   6725   6723   6753     1   109.7800468 425.094400
   6726   6729   6730     1   109.5600471 388.275200
   6726   6729   6731     1   109.5600471 388.275200
   6727   6726   6729     1   109.8000471 387.438400
   6727   6726   6728     1   107.5800459 329.699200
   6728   6726   6729     1   109.8000471 387.438400
   6730   6729   6732     1   109.8800469 414.216000
   6730   6729   6731     1   108.4600466 328.025600
   6731   6729   6732     1   109.8800469 414.216000
   6732   6733   6734     1   109.8800469 414.216000
   6732   6733   6735     1   109.8800469 414.216000
   6732   6743   6744     1   109.8800469 414.216000
   6732   6743   6745     1   109.8800469 414.216000
   6733   6736   6737     1   109.8000471 387.438400
   6733   6736   6738     1   109.8000471 387.438400
   6734   6733   6736     1   109.5600471 388.275200
   6734   6733   6735     1   108.4600466 328.025600
   6735   6733   6736     1   109.5600471 388.275200
   6737   6736   6739     1   108.7700466 392.459200
   6737   6736   6738     1   107.5800459 329.699200
   6738   6736   6739     1   108.7700466 392.459200
   6739   6741   6742     1   106.5500460 417.563200
   6743   6746   6747     1   109.8000471 387.438400
   6743   6746   6748     1   109.8000471 387.438400
   6744   6743   6746     1   109.5600471 388.275200
   6744   6743   6745     1   108.4600466 328.025600
   6745   6743   6746     1   109.5600471 388.275200
   6747   6746   6749     1   108.7700466 392.459200
   6747   6746   6748     1   107.5800459 329.699200
   6748   6746   6749     1   108.7700466 392.459200
   6749   6751   6752     1   106.5500460 417.563200
   6754   6757   6758     1   109.8000471 387.438400
   6754   6757   6759     1   109.8000471 387.438400
   6755   6754   6757     1   109.5600471 388.275200
   6755   6754   6784     1   109.7800468 425.094400
   6755   6754   6756     1   108.4600466 328.025600
   6756   6754   6757     1   109.5600471 388.275200
   6756   6754   6784     1   109.7800468 425.094400
   6757   6760   6761     1   109.5600471 388.275200
   6757   6760   6762     1   109.5600471 388.275200
   6758   6757   6760     1   109.8000471 387.438400
   6758   6757   6759     1   107.5800459 329.699200
   6759   6757   6760     1   109.8000471 387.438400
   6761   6760   6763     1   109.8800469 414.216000
   6761   6760   6762     1   108.4600466 328.025600
   6762   6760   6763     1   109.8800469 414.216000
   6763   6764   6765     1   109.8800469 414.216000
   6763   6764   6766     1   109.8800469 414.216000
   6763   6774   6775     1   109.8800469 414.216000
   6763   6774   6776     1   109.8800469 414.216000
   6764   6767   6768     1   109.8000471 387.438400
   6764   6767   6769     1   109.8000471 387.438400
   6765   6764   6767     1   109.5600471 388.275200
   6765   6764   6766     1   108.4600466 328.025600
   6766   6764   6767     1   109.5600471 388.275200
   6768   6767   6770     1   108.7700466 392.459200
   6768   6767   6769     1   107.5800459 329.699200
   6769   6767   6770     1   108.7700466 392.459200
   6770   6772   6773     1   106.5500460 417.563200
   6774   6777   6778     1   109.8000471 387.438400
   6774   6777   6779     1   109.8000471 387.438400
   6775   6774   6777     1   109.5600471 388.275200
   6775   6774   6776     1   108.4600466 328.025600
   6776   6774   6777     1   109.5600471 388.275200
   6778   6777   6780     1   108.7700466 392.459200
   6778   6777   6779     1   107.5800459 329.699200
   6779   6777   6780     1   108.7700466 392.459200
   6780   6782   6783     1   106.5500460 417.563200
   6785   6788   6789     1   109.8000471 387.438400
   6785   6788   6790     1   109.8000471 387.438400
   6786   6785   6788     1   109.5600471 388.275200
   6786   6785   6815     1   109.7800468 425.094400
   6786   6785   6787     1   108.4600466 328.025600
   6787   6785   6788     1   109.5600471 388.275200
   6787   6785   6815     1   109.7800468 425.094400
   6788   6791   6792     1   109.5600471 388.275200
   6788   6791   6793     1   109.5600471 388.275200
   6789   6788   6791     1   109.8000471 387.438400
   6789   6788   6790     1   107.5800459 329.699200
   6790   6788   6791     1   109.8000471 387.438400
   6792   6791   6794     1   109.8800469 414.216000
   6792   6791   6793     1   108.4600466 328.025600
   6793   6791   6794     1   109.8800469 414.216000
   6794   6795   6796     1   109.8800469 414.216000
   6794   6795   6797     1   109.8800469 414.216000
   6794   6805   6806     1   109.8800469 414.216000
   6794   6805   6807     1   109.8800469 414.216000
   6795   6798   6799     1   109.8000471 387.438400
   6795   6798   6800     1   109.8000471 387.438400
   6796   6795   6798     1   109.5600471 388.275200
   6796   6795   6797     1   108.4600466 328.025600
   6797   6795   6798     1   109.5600471 388.275200
   6799   6798   6801     1   108.7700466 392.459200
   6799   6798   6800     1   107.5800459 329.699200
   6800   6798   6801     1   108.7700466 392.459200
   6801   6803   6804     1   106.5500460 417.563200
   6805   6808   6809     1   109.8000471 387.438400
   6805   6808   6810     1   109.8000471 387.438400
   6806   6805   6808     1   109.5600471 388.275200
   6806   6805   6807     1   108.4600466 328.025600
   6807   6805   6808     1   109.5600471 388.275200
   6809   6808   6811     1   108.7700466 392.459200
   6809   6808   6810     1   107.5800459 329.699200
   6810   6808   6811     1   108.7700466 392.459200
   6811   6813   6814     1   106.5500460 417.563200
   6816   6819   6820     1   109.8000471 387.438400
   6816   6819   6821     1   109.8000471 387.438400
   6817   6816   6819     1   109.5600471 388.275200
   6817   6816   6846     1   109.7800468 425.094400
   6817   6816   6818     1   108.4600466 328.025600
   6818   6816   6819     1   109.5600471 388.275200
   6818   6816   6846     1   109.7800468 425.094400
   6819   6822   6823     1   109.5600471 388.275200
   6819   6822   6824     1   109.5600471 388.275200
   6820   6819   6822     1   109.8000471 387.438400
   6820   6819   6821     1   107.5800459 329.699200
   6821   6819   6822     1   109.8000471 387.438400
   6823   6822   6825     1   109.8800469 414.216000
   6823   6822   6824     1   108.4600466 328.025600
   6824   6822   6825     1   109.8800469 414.216000
   6825   6826   6827     1   109.8800469 414.216000
   6825   6826   6828     1   109.8800469 414.216000
   6825   6836   6837     1   109.8800469 414.216000
   6825   6836   6838     1   109.8800469 414.216000
   6826   6829   6830     1   109.8000471 387.438400
   6826   6829   6831     1   109.8000471 387.438400
   6827   6826   6829     1   109.5600471 388.275200
   6827   6826   6828     1   108.4600466 328.025600
   6828   6826   6829     1   109.5600471 388.275200
   6830   6829   6832     1   108.7700466 392.459200
   6830   6829   6831     1   107.5800459 329.699200
   6831   6829   6832     1   108.7700466 392.459200
   6832   6834   6835     1   106.5500460 417.563200
   6836   6839   6840     1   109.8000471 387.438400
   6836   6839   6841     1   109.8000471 387.438400
   6837   6836   6839     1   109.5600471 388.275200
   6837   6836   6838     1   108.4600466 328.025600
   6838   6836   6839     1   109.5600471 388.275200
   6840   6839   6842     1   108.7700466 392.459200
   6840   6839   6841     1   107.5800459 329.699200
   6841   6839   6842     1   108.7700466 392.459200
   6842   6844   6845     1   106.5500460 417.563200
   6847   6850   6851     1   109.8000471 387.438400
   6847   6850   6852     1   109.8000471 387.438400
   6848   6847   6850     1   109.5600471 388.275200
   6848   6847   6877     1   109.7800468 425.094400
   6848   6847   6849     1   108.4600466 328.025600
   6849   6847   6850     1   109.5600471 388.275200
   6849   6847   6877     1   109.7800468 425.094400
   6850   6853   6854     1   109.5600471 388.275200
   6850   6853   6855     1   109.5600471 388.275200
   6851   6850   6853     1   109.8000471 387.438400
   6851   6850   6852     1   107.5800459 329.699200
   6852   6850   6853     1   109.8000471 387.438400
   6854   6853   6856     1   109.8800469 414.216000
   6854   6853   6855     1   108.4600466 328.025600
   6855   6853   6856     1   109.8800469 414.216000
   6856   6857   6858     1   109.8800469 414.216000
   6856   6857   6859     1   109.8800469 414.216000
   6856   6867   6868     1   109.8800469 414.216000
   6856   6867   6869     1   109.8800469 414.216000
   6857   6860   6861     1   109.8000471 387.438400
   6857   6860   6862     1   109.8000471 387.438400
   6858   6857   6860     1   109.5600471 388.275200
   6858   6857   6859     1   108.4600466 328.025600
   6859   6857   6860     1   109.5600471 388.275200
   6861   6860   6863     1   108.7700466 392.459200
   6861   6860   6862     1   107.5800459 329.699200
   6862   6860   6863     1   108.7700466 392.459200
   6863   6865   6866     1   106.5500460 417.563200
   6867   6870   6871     1   109.8000471 387.438400
   6867   6870   6872     1   109.8000471 387.438400
   6868   6867   6870     1   109.5600471 388.275200
   6868   6867   6869     1   108.4600466 328.025600
   6869   6867   6870     1   109.5600471 388.275200
   6871   6870   6873     1   108.7700466 392.459200
   6871   6870   6872     1   107.5800459 329.699200
   6872   6870   6873     1   108.7700466 392.459200
   6873   6875   6876     1   106.5500460 417.563200
   6878   6881   6882     1   109.8000471 387.438400
   6878   6881   6883     1   109.8000471 387.438400
   6879   6878   6881     1   109.5600471 388.275200
   6879   6878   6908     1   109.7800468 425.094400
   6879   6878   6880     1   108.4600466 328.025600
   6880   6878   6881     1   109.5600471 388.275200
   6880   6878   6908     1   109.7800468 425.094400
   6881   6884   6885     1   109.5600471 388.275200
   6881   6884   6886     1   109.5600471 388.275200
   6882   6881   6884     1   109.8000471 387.438400
   6882   6881   6883     1   107.5800459 329.699200
   6883   6881   6884     1   109.8000471 387.438400
   6885   6884   6887     1   109.8800469 414.216000
   6885   6884   6886     1   108.4600466 328.025600
   6886   6884   6887     1   109.8800469 414.216000
   6887   6888   6889     1   109.8800469 414.216000
   6887   6888   6890     1   109.8800469 414.216000
   6887   6898   6899     1   109.8800469 414.216000
   6887   6898   6900     1   109.8800469 414.216000
   6888   6891   6892     1   109.8000471 387.438400
   6888   6891   6893     1   109.8000471 387.438400
   6889   6888   6891     1   109.5600471 388.275200
   6889   6888   6890     1   108.4600466 328.025600
   6890   6888   6891     1   109.5600471 388.275200
   6892   6891   6894     1   108.7700466 392.459200
   6892   6891   6893     1   107.5800459 329.699200
   6893   6891   6894     1   108.7700466 392.459200
   6894   6896   6897     1   106.5500460 417.563200
   6898   6901   6902     1   109.8000471 387.438400
   6898   6901   6903     1   109.8000471 387.438400
   6899   6898   6901     1   109.5600471 388.275200
   6899   6898   6900     1   108.4600466 328.025600
   6900   6898   6901     1   109.5600471 388.275200
   6902   6901   6904     1   108.7700466 392.459200
   6902   6901   6903     1   107.5800459 329.699200
   6903   6901   6904     1   108.7700466 392.459200
   6904   6906   6907     1   106.5500460 417.563200
   6909   6912   6913     1   109.8000471 387.438400
   6909   6912   6914     1   109.8000471 387.438400
   6910   6909   6912     1   109.5600471 388.275200
   6910   6909   6939     1   109.7800468 425.094400
   6910   6909   6911     1   108.4600466 328.025600
   6911   6909   6912     1   109.5600471 388.275200
   6911   6909   6939     1   109.7800468 425.094400
   6912   6915   6916     1   109.5600471 388.275200
   6912   6915   6917     1   109.5600471 388.275200
   6913   6912   6915     1   109.8000471 387.438400
   6913   6912   6914     1   107.5800459 329.699200
   6914   6912   6915     1   109.8000471 387.438400
   6916   6915   6918     1   109.8800469 414.216000
   6916   6915   6917     1   108.4600466 328.025600
   6917   6915   6918     1   109.8800469 414.216000
   6918   6919   6920     1   109.8800469 414.216000
   6918   6919   6921     1   109.8800469 414.216000
   6918   6929   6930     1   109.8800469 414.216000
   6918   6929   6931     1   109.8800469 414.216000
   6919   6922   6923     1   109.8000471 387.438400
   6919   6922   6924     1   109.8000471 387.438400
   6920   6919   6922     1   109.5600471 388.275200
   6920   6919   6921     1   108.4600466 328.025600
   6921   6919   6922     1   109.5600471 388.275200
   6923   6922   6925     1   108.7700466 392.459200
   6923   6922   6924     1   107.5800459 329.699200
   6924   6922   6925     1   108.7700466 392.459200
   6925   6927   6928     1   106.5500460 417.563200
   6929   6932   6933     1   109.8000471 387.438400
   6929   6932   6934     1   109.8000471 387.438400
   6930   6929   6932     1   109.5600471 388.275200
   6930   6929   6931     1   108.4600466 328.025600
   6931   6929   6932     1   109.5600471 388.275200
   6933   6932   6935     1   108.7700466 392.459200
   6933   6932   6934     1   107.5800459 329.699200
   6934   6932   6935     1   108.7700466 392.459200
   6935   6937   6938     1   106.5500460 417.563200
   6940   6943   6944     1   109.8000471 387.438400
   6940   6943   6945     1   109.8000471 387.438400
   6941   6940   6943     1   109.5600471 388.275200
   6941   6940   6970     1   109.7800468 425.094400
   6941   6940   6942     1   108.4600466 328.025600
   6942   6940   6943     1   109.5600471 388.275200
   6942   6940   6970     1   109.7800468 425.094400
   6943   6946   6947     1   109.5600471 388.275200
   6943   6946   6948     1   109.5600471 388.275200
   6944   6943   6946     1   109.8000471 387.438400
   6944   6943   6945     1   107.5800459 329.699200
   6945   6943   6946     1   109.8000471 387.438400
   6947   6946   6949     1   109.8800469 414.216000
   6947   6946   6948     1   108.4600466 328.025600
   6948   6946   6949     1   109.8800469 414.216000
   6949   6950   6951     1   109.8800469 414.216000
   6949   6950   6952     1   109.8800469 414.216000
   6949   6960   6961     1   109.8800469 414.216000
   6949   6960   6962     1   109.8800469 414.216000
   6950   6953   6954     1   109.8000471 387.438400
   6950   6953   6955     1   109.8000471 387.438400
   6951   6950   6953     1   109.5600471 388.275200
   6951   6950   6952     1   108.4600466 328.025600
   6952   6950   6953     1   109.5600471 388.275200
   6954   6953   6956     1   108.7700466 392.459200
   6954   6953   6955     1   107.5800459 329.699200
   6955   6953   6956     1   108.7700466 392.459200
   6956   6958   6959     1   106.5500460 417.563200
   6960   6963   6964     1   109.8000471 387.438400
   6960   6963   6965     1   109.8000471 387.438400
   6961   6960   6963     1   109.5600471 388.275200
   6961   6960   6962     1   108.4600466 328.025600
   6962   6960   6963     1   109.5600471 388.275200
   6964   6963   6966     1   108.7700466 392.459200
   6964   6963   6965     1   107.5800459 329.699200
   6965   6963   6966     1   108.7700466 392.459200
   6966   6968   6969     1   106.5500460 417.563200
   6971   6974   6975     1   109.8000471 387.438400
   6971   6974   6976     1   109.8000471 387.438400
   6972   6971   6974     1   109.5600471 388.275200
   6972   6971   7001     1   109.7800468 425.094400
   6972   6971   6973     1   108.4600466 328.025600
   6973   6971   6974     1   109.5600471 388.275200
   6973   6971   7001     1   109.7800468 425.094400
   6974   6977   6978     1   109.5600471 388.275200
   6974   6977   6979     1   109.5600471 388.275200
   6975   6974   6977     1   109.8000471 387.438400
   6975   6974   6976     1   107.5800459 329.699200
   6976   6974   6977     1   109.8000471 387.438400
   6978   6977   6980     1   109.8800469 414.216000
   6978   6977   6979     1   108.4600466 328.025600
   6979   6977   6980     1   109.8800469 414.216000
   6980   6981   6982     1   109.8800469 414.216000
   6980   6981   6983     1   109.8800469 414.216000
   6980   6991   6992     1   109.8800469 414.216000
   6980   6991   6993     1   109.8800469 414.216000
   6981   6984   6985     1   109.8000471 387.438400
   6981   6984   6986     1   109.8000471 387.438400
   6982   6981   6984     1   109.5600471 388.275200
   6982   6981   6983     1   108.4600466 328.025600
   6983   6981   6984     1   109.5600471 388.275200
   6985   6984   6987     1   108.7700466 392.459200
   6985   6984   6986     1   107.5800459 329.699200
   6986   6984   6987     1   108.7700466 392.459200
   6987   6989   6990     1   106.5500460 417.563200
   6991   6994   6995     1   109.8000471 387.438400
   6991   6994   6996     1   109.8000471 387.438400
   6992   6991   6994     1   109.5600471 388.275200
   6992   6991   6993     1   108.4600466 328.025600
   6993   6991   6994     1   109.5600471 388.275200
   6995   6994   6997     1   108.7700466 392.459200
   6995   6994   6996     1   107.5800459 329.699200
   6996   6994   6997     1   108.7700466 392.459200
   6997   6999   7000     1   106.5500460 417.563200
   7002   7005   7006     1   109.8000471 387.438400
   7002   7005   7007     1   109.8000471 387.438400
   7003   7002   7005     1   109.5600471 388.275200
   7003   7002   7032     1   109.7800468 425.094400
   7003   7002   7004     1   108.4600466 328.025600
   7004   7002   7005     1   109.5600471 388.275200
   7004   7002   7032     1   109.7800468 425.094400
   7005   7008   7009     1   109.5600471 388.275200
   7005   7008   7010     1   109.5600471 388.275200
   7006   7005   7008     1   109.8000471 387.438400
   7006   7005   7007     1   107.5800459 329.699200
   7007   7005   7008     1   109.8000471 387.438400
   7009   7008   7011     1   109.8800469 414.216000
   7009   7008   7010     1   108.4600466 328.025600
   7010   7008   7011     1   109.8800469 414.216000
   7011   7012   7013     1   109.8800469 414.216000
   7011   7012   7014     1   109.8800469 414.216000
   7011   7022   7023     1   109.8800469 414.216000
   7011   7022   7024     1   109.8800469 414.216000
   7012   7015   7016     1   109.8000471 387.438400
   7012   7015   7017     1   109.8000471 387.438400
   7013   7012   7015     1   109.5600471 388.275200
   7013   7012   7014     1   108.4600466 328.025600
   7014   7012   7015     1   109.5600471 388.275200
   7016   7015   7018     1   108.7700466 392.459200
   7016   7015   7017     1   107.5800459 329.699200
   7017   7015   7018     1   108.7700466 392.459200
   7018   7020   7021     1   106.5500460 417.563200
   7022   7025   7026     1   109.8000471 387.438400
   7022   7025   7027     1   109.8000471 387.438400
   7023   7022   7025     1   109.5600471 388.275200
   7023   7022   7024     1   108.4600466 328.025600
   7024   7022   7025     1   109.5600471 388.275200
   7026   7025   7028     1   108.7700466 392.459200
   7026   7025   7027     1   107.5800459 329.699200
   7027   7025   7028     1   108.7700466 392.459200
   7028   7030   7031     1   106.5500460 417.563200
   7033   7036   7037     1   109.8000471 387.438400
   7033   7036   7038     1   109.8000471 387.438400
   7034   7033   7036     1   109.5600471 388.275200
   7034   7033   7063     1   109.7800468 425.094400
   7034   7033   7035     1   108.4600466 328.025600
   7035   7033   7036     1   109.5600471 388.275200
   7035   7033   7063     1   109.7800468 425.094400
   7036   7039   7040     1   109.5600471 388.275200
   7036   7039   7041     1   109.5600471 388.275200
   7037   7036   7039     1   109.8000471 387.438400
   7037   7036   7038     1   107.5800459 329.699200
   7038   7036   7039     1   109.8000471 387.438400
   7040   7039   7042     1   109.8800469 414.216000
   7040   7039   7041     1   108.4600466 328.025600
   7041   7039   7042     1   109.8800469 414.216000
   7042   7043   7044     1   109.8800469 414.216000
   7042   7043   7045     1   109.8800469 414.216000
   7042   7053   7054     1   109.8800469 414.216000
   7042   7053   7055     1   109.8800469 414.216000
   7043   7046   7047     1   109.8000471 387.438400
   7043   7046   7048     1   109.8000471 387.438400
   7044   7043   7046     1   109.5600471 388.275200
   7044   7043   7045     1   108.4600466 328.025600
   7045   7043   7046     1   109.5600471 388.275200
   7047   7046   7049     1   108.7700466 392.459200
   7047   7046   7048     1   107.5800459 329.699200
   7048   7046   7049     1   108.7700466 392.459200
   7049   7051   7052     1   106.5500460 417.563200
   7053   7056   7057     1   109.8000471 387.438400
   7053   7056   7058     1   109.8000471 387.438400
   7054   7053   7056     1   109.5600471 388.275200
   7054   7053   7055     1   108.4600466 328.025600
   7055   7053   7056     1   109.5600471 388.275200
   7057   7056   7059     1   108.7700466 392.459200
   7057   7056   7058     1   107.5800459 329.699200
   7058   7056   7059     1   108.7700466 392.459200
   7059   7061   7062     1   106.5500460 417.563200
   7064   7067   7068     1   109.8000471 387.438400
   7064   7067   7069     1   109.8000471 387.438400
   7065   7064   7067     1   109.5600471 388.275200
   7065   7064   7094     1   109.7800468 425.094400
   7065   7064   7066     1   108.4600466 328.025600
   7066   7064   7067     1   109.5600471 388.275200
   7066   7064   7094     1   109.7800468 425.094400
   7067   7070   7071     1   109.5600471 388.275200
   7067   7070   7072     1   109.5600471 388.275200
   7068   7067   7070     1   109.8000471 387.438400
   7068   7067   7069     1   107.5800459 329.699200
   7069   7067   7070     1   109.8000471 387.438400
   7071   7070   7073     1   109.8800469 414.216000
   7071   7070   7072     1   108.4600466 328.025600
   7072   7070   7073     1   109.8800469 414.216000
   7073   7074   7075     1   109.8800469 414.216000
   7073   7074   7076     1   109.8800469 414.216000
   7073   7084   7085     1   109.8800469 414.216000
   7073   7084   7086     1   109.8800469 414.216000
   7074   7077   7078     1   109.8000471 387.438400
   7074   7077   7079     1   109.8000471 387.438400
   7075   7074   7077     1   109.5600471 388.275200
   7075   7074   7076     1   108.4600466 328.025600
   7076   7074   7077     1   109.5600471 388.275200
   7078   7077   7080     1   108.7700466 392.459200
   7078   7077   7079     1   107.5800459 329.699200
   7079   7077   7080     1   108.7700466 392.459200
   7080   7082   7083     1   106.5500460 417.563200
   7084   7087   7088     1   109.8000471 387.438400
   7084   7087   7089     1   109.8000471 387.438400
   7085   7084   7087     1   109.5600471 388.275200
   7085   7084   7086     1   108.4600466 328.025600
   7086   7084   7087     1   109.5600471 388.275200
   7088   7087   7090     1   108.7700466 392.459200
   7088   7087   7089     1   107.5800459 329.699200
   7089   7087   7090     1   108.7700466 392.459200
   7090   7092   7093     1   106.5500460 417.563200
   7095   7098   7099     1   109.8000471 387.438400
   7095   7098   7100     1   109.8000471 387.438400
   7096   7095   7098     1   109.5600471 388.275200
   7096   7095   7125     1   109.7800468 425.094400
   7096   7095   7097     1   108.4600466 328.025600
   7097   7095   7098     1   109.5600471 388.275200
   7097   7095   7125     1   109.7800468 425.094400
   7098   7101   7102     1   109.5600471 388.275200
   7098   7101   7103     1   109.5600471 388.275200
   7099   7098   7101     1   109.8000471 387.438400
   7099   7098   7100     1   107.5800459 329.699200
   7100   7098   7101     1   109.8000471 387.438400
   7102   7101   7104     1   109.8800469 414.216000
   7102   7101   7103     1   108.4600466 328.025600
   7103   7101   7104     1   109.8800469 414.216000
   7104   7105   7106     1   109.8800469 414.216000
   7104   7105   7107     1   109.8800469 414.216000
   7104   7115   7116     1   109.8800469 414.216000
   7104   7115   7117     1   109.8800469 414.216000
   7105   7108   7109     1   109.8000471 387.438400
   7105   7108   7110     1   109.8000471 387.438400
   7106   7105   7108     1   109.5600471 388.275200
   7106   7105   7107     1   108.4600466 328.025600
   7107   7105   7108     1   109.5600471 388.275200
   7109   7108   7111     1   108.7700466 392.459200
   7109   7108   7110     1   107.5800459 329.699200
   7110   7108   7111     1   108.7700466 392.459200
   7111   7113   7114     1   106.5500460 417.563200
   7115   7118   7119     1   109.8000471 387.438400
   7115   7118   7120     1   109.8000471 387.438400
   7116   7115   7118     1   109.5600471 388.275200
   7116   7115   7117     1   108.4600466 328.025600
   7117   7115   7118     1   109.5600471 388.275200
   7119   7118   7121     1   108.7700466 392.459200
   7119   7118   7120     1   107.5800459 329.699200
   7120   7118   7121     1   108.7700466 392.459200
   7121   7123   7124     1   106.5500460 417.563200
   7126   7129   7130     1   109.8000471 387.438400
   7126   7129   7131     1   109.8000471 387.438400
   7127   7126   7129     1   109.5600471 388.275200
   7127   7126   7156     1   109.7800468 425.094400
   7127   7126   7128     1   108.4600466 328.025600
   7128   7126   7129     1   109.5600471 388.275200
   7128   7126   7156     1   109.7800468 425.094400
   7129   7132   7133     1   109.5600471 388.275200
   7129   7132   7134     1   109.5600471 388.275200
   7130   7129   7132     1   109.8000471 387.438400
   7130   7129   7131     1   107.5800459 329.699200
   7131   7129   7132     1   109.8000471 387.438400
   7133   7132   7135     1   109.8800469 414.216000
   7133   7132   7134     1   108.4600466 328.025600
   7134   7132   7135     1   109.8800469 414.216000
   7135   7136   7137     1   109.8800469 414.216000
   7135   7136   7138     1   109.8800469 414.216000
   7135   7146   7147     1   109.8800469 414.216000
   7135   7146   7148     1   109.8800469 414.216000
   7136   7139   7140     1   109.8000471 387.438400
   7136   7139   7141     1   109.8000471 387.438400
   7137   7136   7139     1   109.5600471 388.275200
   7137   7136   7138     1   108.4600466 328.025600
   7138   7136   7139     1   109.5600471 388.275200
   7140   7139   7142     1   108.7700466 392.459200
   7140   7139   7141     1   107.5800459 329.699200
   7141   7139   7142     1   108.7700466 392.459200
   7142   7144   7145     1   106.5500460 417.563200
   7146   7149   7150     1   109.8000471 387.438400
   7146   7149   7151     1   109.8000471 387.438400
   7147   7146   7149     1   109.5600471 388.275200
   7147   7146   7148     1   108.4600466 328.025600
   7148   7146   7149     1   109.5600471 388.275200
   7150   7149   7152     1   108.7700466 392.459200
   7150   7149   7151     1   107.5800459 329.699200
   7151   7149   7152     1   108.7700466 392.459200
   7152   7154   7155     1   106.5500460 417.563200
   7157   7160   7161     1   109.8000471 387.438400
   7157   7160   7162     1   109.8000471 387.438400
   7158   7157   7160     1   109.5600471 388.275200
   7158   7157   7187     1   109.7800468 425.094400
   7158   7157   7159     1   108.4600466 328.025600
   7159   7157   7160     1   109.5600471 388.275200
   7159   7157   7187     1   109.7800468 425.094400
   7160   7163   7164     1   109.5600471 388.275200
   7160   7163   7165     1   109.5600471 388.275200
   7161   7160   7163     1   109.8000471 387.438400
   7161   7160   7162     1   107.5800459 329.699200
   7162   7160   7163     1   109.8000471 387.438400
   7164   7163   7166     1   109.8800469 414.216000
   7164   7163   7165     1   108.4600466 328.025600
   7165   7163   7166     1   109.8800469 414.216000
   7166   7167   7168     1   109.8800469 414.216000
   7166   7167   7169     1   109.8800469 414.216000
   7166   7177   7178     1   109.8800469 414.216000
   7166   7177   7179     1   109.8800469 414.216000
   7167   7170   7171     1   109.8000471 387.438400
   7167   7170   7172     1   109.8000471 387.438400
   7168   7167   7170     1   109.5600471 388.275200
   7168   7167   7169     1   108.4600466 328.025600
   7169   7167   7170     1   109.5600471 388.275200
   7171   7170   7173     1   108.7700466 392.459200
   7171   7170   7172     1   107.5800459 329.699200
   7172   7170   7173     1   108.7700466 392.459200
   7173   7175   7176     1   106.5500460 417.563200
   7177   7180   7181     1   109.8000471 387.438400
   7177   7180   7182     1   109.8000471 387.438400
   7178   7177   7180     1   109.5600471 388.275200
   7178   7177   7179     1   108.4600466 328.025600
   7179   7177   7180     1   109.5600471 388.275200
   7181   7180   7183     1   108.7700466 392.459200
   7181   7180   7182     1   107.5800459 329.699200
   7182   7180   7183     1   108.7700466 392.459200
   7183   7185   7186     1   106.5500460 417.563200
   7188   7191   7192     1   109.8000471 387.438400
   7188   7191   7193     1   109.8000471 387.438400
   7189   7188   7191     1   109.5600471 388.275200
   7189   7188   7218     1   109.7800468 425.094400
   7189   7188   7190     1   108.4600466 328.025600
   7190   7188   7191     1   109.5600471 388.275200
   7190   7188   7218     1   109.7800468 425.094400
   7191   7194   7195     1   109.5600471 388.275200
   7191   7194   7196     1   109.5600471 388.275200
   7192   7191   7194     1   109.8000471 387.438400
   7192   7191   7193     1   107.5800459 329.699200
   7193   7191   7194     1   109.8000471 387.438400
   7195   7194   7197     1   109.8800469 414.216000
   7195   7194   7196     1   108.4600466 328.025600
   7196   7194   7197     1   109.8800469 414.216000
   7197   7198   7199     1   109.8800469 414.216000
   7197   7198   7200     1   109.8800469 414.216000
   7197   7208   7209     1   109.8800469 414.216000
   7197   7208   7210     1   109.8800469 414.216000
   7198   7201   7202     1   109.8000471 387.438400
   7198   7201   7203     1   109.8000471 387.438400
   7199   7198   7201     1   109.5600471 388.275200
   7199   7198   7200     1   108.4600466 328.025600
   7200   7198   7201     1   109.5600471 388.275200
   7202   7201   7204     1   108.7700466 392.459200
   7202   7201   7203     1   107.5800459 329.699200
   7203   7201   7204     1   108.7700466 392.459200
   7204   7206   7207     1   106.5500460 417.563200
   7208   7211   7212     1   109.8000471 387.438400
   7208   7211   7213     1   109.8000471 387.438400
   7209   7208   7211     1   109.5600471 388.275200
   7209   7208   7210     1   108.4600466 328.025600
   7210   7208   7211     1   109.5600471 388.275200
   7212   7211   7214     1   108.7700466 392.459200
   7212   7211   7213     1   107.5800459 329.699200
   7213   7211   7214     1   108.7700466 392.459200
   7214   7216   7217     1   106.5500460 417.563200
   7219   7222   7223     1   109.8000471 387.438400
   7219   7222   7224     1   109.8000471 387.438400
   7220   7219   7222     1   109.5600471 388.275200
   7220   7219   7249     1   109.7800468 425.094400
   7220   7219   7221     1   108.4600466 328.025600
   7221   7219   7222     1   109.5600471 388.275200
   7221   7219   7249     1   109.7800468 425.094400
   7222   7225   7226     1   109.5600471 388.275200
   7222   7225   7227     1   109.5600471 388.275200
   7223   7222   7225     1   109.8000471 387.438400
   7223   7222   7224     1   107.5800459 329.699200
   7224   7222   7225     1   109.8000471 387.438400
   7226   7225   7228     1   109.8800469 414.216000
   7226   7225   7227     1   108.4600466 328.025600
   7227   7225   7228     1   109.8800469 414.216000
   7228   7229   7230     1   109.8800469 414.216000
   7228   7229   7231     1   109.8800469 414.216000
   7228   7239   7240     1   109.8800469 414.216000
   7228   7239   7241     1   109.8800469 414.216000
   7229   7232   7233     1   109.8000471 387.438400
   7229   7232   7234     1   109.8000471 387.438400
   7230   7229   7232     1   109.5600471 388.275200
   7230   7229   7231     1   108.4600466 328.025600
   7231   7229   7232     1   109.5600471 388.275200
   7233   7232   7235     1   108.7700466 392.459200
   7233   7232   7234     1   107.5800459 329.699200
   7234   7232   7235     1   108.7700466 392.459200
   7235   7237   7238     1   106.5500460 417.563200
   7239   7242   7243     1   109.8000471 387.438400
   7239   7242   7244     1   109.8000471 387.438400
   7240   7239   7242     1   109.5600471 388.275200
   7240   7239   7241     1   108.4600466 328.025600
   7241   7239   7242     1   109.5600471 388.275200
   7243   7242   7245     1   108.7700466 392.459200
   7243   7242   7244     1   107.5800459 329.699200
   7244   7242   7245     1   108.7700466 392.459200
   7245   7247   7248     1   106.5500460 417.563200
   7250   7253   7254     1   109.8000471 387.438400
   7250   7253   7255     1   109.8000471 387.438400
   7251   7250   7253     1   109.5600471 388.275200
   7251   7250   7280     1   109.7800468 425.094400
   7251   7250   7252     1   108.4600466 328.025600
   7252   7250   7253     1   109.5600471 388.275200
   7252   7250   7280     1   109.7800468 425.094400
   7253   7256   7257     1   109.5600471 388.275200
   7253   7256   7258     1   109.5600471 388.275200
   7254   7253   7256     1   109.8000471 387.438400
   7254   7253   7255     1   107.5800459 329.699200
   7255   7253   7256     1   109.8000471 387.438400
   7257   7256   7259     1   109.8800469 414.216000
   7257   7256   7258     1   108.4600466 328.025600
   7258   7256   7259     1   109.8800469 414.216000
   7259   7260   7261     1   109.8800469 414.216000
   7259   7260   7262     1   109.8800469 414.216000
   7259   7270   7271     1   109.8800469 414.216000
   7259   7270   7272     1   109.8800469 414.216000
   7260   7263   7264     1   109.8000471 387.438400
   7260   7263   7265     1   109.8000471 387.438400
   7261   7260   7263     1   109.5600471 388.275200
   7261   7260   7262     1   108.4600466 328.025600
   7262   7260   7263     1   109.5600471 388.275200
   7264   7263   7266     1   108.7700466 392.459200
   7264   7263   7265     1   107.5800459 329.699200
   7265   7263   7266     1   108.7700466 392.459200
   7266   7268   7269     1   106.5500460 417.563200
   7270   7273   7274     1   109.8000471 387.438400
   7270   7273   7275     1   109.8000471 387.438400
   7271   7270   7273     1   109.5600471 388.275200
   7271   7270   7272     1   108.4600466 328.025600
   7272   7270   7273     1   109.5600471 388.275200
   7274   7273   7276     1   108.7700466 392.459200
   7274   7273   7275     1   107.5800459 329.699200
   7275   7273   7276     1   108.7700466 392.459200
   7276   7278   7279     1   106.5500460 417.563200
   7281   7284   7285     1   109.8000471 387.438400
   7281   7284   7286     1   109.8000471 387.438400
   7282   7281   7284     1   109.5600471 388.275200
   7282   7281   7311     1   109.7800468 425.094400
   7282   7281   7283     1   108.4600466 328.025600
   7283   7281   7284     1   109.5600471 388.275200
   7283   7281   7311     1   109.7800468 425.094400
   7284   7287   7288     1   109.5600471 388.275200
   7284   7287   7289     1   109.5600471 388.275200
   7285   7284   7287     1   109.8000471 387.438400
   7285   7284   7286     1   107.5800459 329.699200
   7286   7284   7287     1   109.8000471 387.438400
   7288   7287   7290     1   109.8800469 414.216000
   7288   7287   7289     1   108.4600466 328.025600
   7289   7287   7290     1   109.8800469 414.216000
   7290   7291   7292     1   109.8800469 414.216000
   7290   7291   7293     1   109.8800469 414.216000
   7290   7301   7302     1   109.8800469 414.216000
   7290   7301   7303     1   109.8800469 414.216000
   7291   7294   7295     1   109.8000471 387.438400
   7291   7294   7296     1   109.8000471 387.438400
   7292   7291   7294     1   109.5600471 388.275200
   7292   7291   7293     1   108.4600466 328.025600
   7293   7291   7294     1   109.5600471 388.275200
   7295   7294   7297     1   108.7700466 392.459200
   7295   7294   7296     1   107.5800459 329.699200
   7296   7294   7297     1   108.7700466 392.459200
   7297   7299   7300     1   106.5500460 417.563200
   7301   7304   7305     1   109.8000471 387.438400
   7301   7304   7306     1   109.8000471 387.438400
   7302   7301   7304     1   109.5600471 388.275200
   7302   7301   7303     1   108.4600466 328.025600
   7303   7301   7304     1   109.5600471 388.275200
   7305   7304   7307     1   108.7700466 392.459200
   7305   7304   7306     1   107.5800459 329.699200
   7306   7304   7307     1   108.7700466 392.459200
   7307   7309   7310     1   106.5500460 417.563200
   7312   7315   7316     1   109.8000471 387.438400
   7312   7315   7317     1   109.8000471 387.438400
   7313   7312   7315     1   109.5600471 388.275200
   7313   7312   7342     1   109.7800468 425.094400
   7313   7312   7314     1   108.4600466 328.025600
   7314   7312   7315     1   109.5600471 388.275200
   7314   7312   7342     1   109.7800468 425.094400
   7315   7318   7319     1   109.5600471 388.275200
   7315   7318   7320     1   109.5600471 388.275200
   7316   7315   7318     1   109.8000471 387.438400
   7316   7315   7317     1   107.5800459 329.699200
   7317   7315   7318     1   109.8000471 387.438400
   7319   7318   7321     1   109.8800469 414.216000
   7319   7318   7320     1   108.4600466 328.025600
   7320   7318   7321     1   109.8800469 414.216000
   7321   7322   7323     1   109.8800469 414.216000
   7321   7322   7324     1   109.8800469 414.216000
   7321   7332   7333     1   109.8800469 414.216000
   7321   7332   7334     1   109.8800469 414.216000
   7322   7325   7326     1   109.8000471 387.438400
   7322   7325   7327     1   109.8000471 387.438400
   7323   7322   7325     1   109.5600471 388.275200
   7323   7322   7324     1   108.4600466 328.025600
   7324   7322   7325     1   109.5600471 388.275200
   7326   7325   7328     1   108.7700466 392.459200
   7326   7325   7327     1   107.5800459 329.699200
   7327   7325   7328     1   108.7700466 392.459200
   7328   7330   7331     1   106.5500460 417.563200
   7332   7335   7336     1   109.8000471 387.438400
   7332   7335   7337     1   109.8000471 387.438400
   7333   7332   7335     1   109.5600471 388.275200
   7333   7332   7334     1   108.4600466 328.025600
   7334   7332   7335     1   109.5600471 388.275200
   7336   7335   7338     1   108.7700466 392.459200
   7336   7335   7337     1   107.5800459 329.699200
   7337   7335   7338     1   108.7700466 392.459200
   7338   7340   7341     1   106.5500460 417.563200
   7343   7346   7347     1   109.8000471 387.438400
   7343   7346   7348     1   109.8000471 387.438400
   7344   7343   7346     1   109.5600471 388.275200
   7344   7343   7373     1   109.7800468 425.094400
   7344   7343   7345     1   108.4600466 328.025600
   7345   7343   7346     1   109.5600471 388.275200
   7345   7343   7373     1   109.7800468 425.094400
   7346   7349   7350     1   109.5600471 388.275200
   7346   7349   7351     1   109.5600471 388.275200
   7347   7346   7349     1   109.8000471 387.438400
   7347   7346   7348     1   107.5800459 329.699200
   7348   7346   7349     1   109.8000471 387.438400
   7350   7349   7352     1   109.8800469 414.216000
   7350   7349   7351     1   108.4600466 328.025600
   7351   7349   7352     1   109.8800469 414.216000
   7352   7353   7354     1   109.8800469 414.216000
   7352   7353   7355     1   109.8800469 414.216000
   7352   7363   7364     1   109.8800469 414.216000
   7352   7363   7365     1   109.8800469 414.216000
   7353   7356   7357     1   109.8000471 387.438400
   7353   7356   7358     1   109.8000471 387.438400
   7354   7353   7356     1   109.5600471 388.275200
   7354   7353   7355     1   108.4600466 328.025600
   7355   7353   7356     1   109.5600471 388.275200
   7357   7356   7359     1   108.7700466 392.459200
   7357   7356   7358     1   107.5800459 329.699200
   7358   7356   7359     1   108.7700466 392.459200
   7359   7361   7362     1   106.5500460 417.563200
   7363   7366   7367     1   109.8000471 387.438400
   7363   7366   7368     1   109.8000471 387.438400
   7364   7363   7366     1   109.5600471 388.275200
   7364   7363   7365     1   108.4600466 328.025600
   7365   7363   7366     1   109.5600471 388.275200
   7367   7366   7369     1   108.7700466 392.459200
   7367   7366   7368     1   107.5800459 329.699200
   7368   7366   7369     1   108.7700466 392.459200
   7369   7371   7372     1   106.5500460 417.563200
   7374   7377   7378     1   109.8000471 387.438400
   7374   7377   7379     1   109.8000471 387.438400
   7375   7374   7377     1   109.5600471 388.275200
   7375   7374   7404     1   109.7800468 425.094400
   7375   7374   7376     1   108.4600466 328.025600
   7376   7374   7377     1   109.5600471 388.275200
   7376   7374   7404     1   109.7800468 425.094400
   7377   7380   7381     1   109.5600471 388.275200
   7377   7380   7382     1   109.5600471 388.275200
   7378   7377   7380     1   109.8000471 387.438400
   7378   7377   7379     1   107.5800459 329.699200
   7379   7377   7380     1   109.8000471 387.438400
   7381   7380   7383     1   109.8800469 414.216000
   7381   7380   7382     1   108.4600466 328.025600
   7382   7380   7383     1   109.8800469 414.216000
   7383   7384   7385     1   109.8800469 414.216000
   7383   7384   7386     1   109.8800469 414.216000
   7383   7394   7395     1   109.8800469 414.216000
   7383   7394   7396     1   109.8800469 414.216000
   7384   7387   7388     1   109.8000471 387.438400
   7384   7387   7389     1   109.8000471 387.438400
   7385   7384   7387     1   109.5600471 388.275200
   7385   7384   7386     1   108.4600466 328.025600
   7386   7384   7387     1   109.5600471 388.275200
   7388   7387   7390     1   108.7700466 392.459200
   7388   7387   7389     1   107.5800459 329.699200
   7389   7387   7390     1   108.7700466 392.459200
   7390   7392   7393     1   106.5500460 417.563200
   7394   7397   7398     1   109.8000471 387.438400
   7394   7397   7399     1   109.8000471 387.438400
   7395   7394   7397     1   109.5600471 388.275200
   7395   7394   7396     1   108.4600466 328.025600
   7396   7394   7397     1   109.5600471 388.275200
   7398   7397   7400     1   108.7700466 392.459200
   7398   7397   7399     1   107.5800459 329.699200
   7399   7397   7400     1   108.7700466 392.459200
   7400   7402   7403     1   106.5500460 417.563200
   7405   7408   7409     1   109.8000471 387.438400
   7405   7408   7410     1   109.8000471 387.438400
   7406   7405   7408     1   109.5600471 388.275200
   7406   7405   7435     1   109.7800468 425.094400
   7406   7405   7407     1   108.4600466 328.025600
   7407   7405   7408     1   109.5600471 388.275200
   7407   7405   7435     1   109.7800468 425.094400
   7408   7411   7412     1   109.5600471 388.275200
   7408   7411   7413     1   109.5600471 388.275200
   7409   7408   7411     1   109.8000471 387.438400
   7409   7408   7410     1   107.5800459 329.699200
   7410   7408   7411     1   109.8000471 387.438400
   7412   7411   7414     1   109.8800469 414.216000
   7412   7411   7413     1   108.4600466 328.025600
   7413   7411   7414     1   109.8800469 414.216000
   7414   7415   7416     1   109.8800469 414.216000
   7414   7415   7417     1   109.8800469 414.216000
   7414   7425   7426     1   109.8800469 414.216000
   7414   7425   7427     1   109.8800469 414.216000
   7415   7418   7419     1   109.8000471 387.438400
   7415   7418   7420     1   109.8000471 387.438400
   7416   7415   7418     1   109.5600471 388.275200
   7416   7415   7417     1   108.4600466 328.025600
   7417   7415   7418     1   109.5600471 388.275200
   7419   7418   7421     1   108.7700466 392.459200
   7419   7418   7420     1   107.5800459 329.699200
   7420   7418   7421     1   108.7700466 392.459200
   7421   7423   7424     1   106.5500460 417.563200
   7425   7428   7429     1   109.8000471 387.438400
   7425   7428   7430     1   109.8000471 387.438400
   7426   7425   7428     1   109.5600471 388.275200
   7426   7425   7427     1   108.4600466 328.025600
   7427   7425   7428     1   109.5600471 388.275200
   7429   7428   7431     1   108.7700466 392.459200
   7429   7428   7430     1   107.5800459 329.699200
   7430   7428   7431     1   108.7700466 392.459200
   7431   7433   7434     1   106.5500460 417.563200
   7436   7439   7440     1   109.8000471 387.438400
   7436   7439   7441     1   109.8000471 387.438400
   7437   7436   7439     1   109.5600471 388.275200
   7437   7436   7466     1   109.7800468 425.094400
   7437   7436   7438     1   108.4600466 328.025600
   7438   7436   7439     1   109.5600471 388.275200
   7438   7436   7466     1   109.7800468 425.094400
   7439   7442   7443     1   109.5600471 388.275200
   7439   7442   7444     1   109.5600471 388.275200
   7440   7439   7442     1   109.8000471 387.438400
   7440   7439   7441     1   107.5800459 329.699200
   7441   7439   7442     1   109.8000471 387.438400
   7443   7442   7445     1   109.8800469 414.216000
   7443   7442   7444     1   108.4600466 328.025600
   7444   7442   7445     1   109.8800469 414.216000
   7445   7446   7447     1   109.8800469 414.216000
   7445   7446   7448     1   109.8800469 414.216000
   7445   7456   7457     1   109.8800469 414.216000
   7445   7456   7458     1   109.8800469 414.216000
   7446   7449   7450     1   109.8000471 387.438400
   7446   7449   7451     1   109.8000471 387.438400
   7447   7446   7449     1   109.5600471 388.275200
   7447   7446   7448     1   108.4600466 328.025600
   7448   7446   7449     1   109.5600471 388.275200
   7450   7449   7452     1   108.7700466 392.459200
   7450   7449   7451     1   107.5800459 329.699200
   7451   7449   7452     1   108.7700466 392.459200
   7452   7454   7455     1   106.5500460 417.563200
   7456   7459   7460     1   109.8000471 387.438400
   7456   7459   7461     1   109.8000471 387.438400
   7457   7456   7459     1   109.5600471 388.275200
   7457   7456   7458     1   108.4600466 328.025600
   7458   7456   7459     1   109.5600471 388.275200
   7460   7459   7462     1   108.7700466 392.459200
   7460   7459   7461     1   107.5800459 329.699200
   7461   7459   7462     1   108.7700466 392.459200
   7462   7464   7465     1   106.5500460 417.563200
   7467   7470   7471     1   109.8000471 387.438400
   7467   7470   7472     1   109.8000471 387.438400
   7468   7467   7470     1   109.5600471 388.275200
   7468   7467   7497     1   109.7800468 425.094400
   7468   7467   7469     1   108.4600466 328.025600
   7469   7467   7470     1   109.5600471 388.275200
   7469   7467   7497     1   109.7800468 425.094400
   7470   7473   7474     1   109.5600471 388.275200
   7470   7473   7475     1   109.5600471 388.275200
   7471   7470   7473     1   109.8000471 387.438400
   7471   7470   7472     1   107.5800459 329.699200
   7472   7470   7473     1   109.8000471 387.438400
   7474   7473   7476     1   109.8800469 414.216000
   7474   7473   7475     1   108.4600466 328.025600
   7475   7473   7476     1   109.8800469 414.216000
   7476   7477   7478     1   109.8800469 414.216000
   7476   7477   7479     1   109.8800469 414.216000
   7476   7487   7488     1   109.8800469 414.216000
   7476   7487   7489     1   109.8800469 414.216000
   7477   7480   7481     1   109.8000471 387.438400
   7477   7480   7482     1   109.8000471 387.438400
   7478   7477   7480     1   109.5600471 388.275200
   7478   7477   7479     1   108.4600466 328.025600
   7479   7477   7480     1   109.5600471 388.275200
   7481   7480   7483     1   108.7700466 392.459200
   7481   7480   7482     1   107.5800459 329.699200
   7482   7480   7483     1   108.7700466 392.459200
   7483   7485   7486     1   106.5500460 417.563200
   7487   7490   7491     1   109.8000471 387.438400
   7487   7490   7492     1   109.8000471 387.438400
   7488   7487   7490     1   109.5600471 388.275200
   7488   7487   7489     1   108.4600466 328.025600
   7489   7487   7490     1   109.5600471 388.275200
   7491   7490   7493     1   108.7700466 392.459200
   7491   7490   7492     1   107.5800459 329.699200
   7492   7490   7493     1   108.7700466 392.459200
   7493   7495   7496     1   106.5500460 417.563200
   7498   7501   7502     1   109.8000471 387.438400
   7498   7501   7503     1   109.8000471 387.438400
   7499   7498   7501     1   109.5600471 388.275200
   7499   7498   7528     1   109.7800468 425.094400
   7499   7498   7500     1   108.4600466 328.025600
   7500   7498   7501     1   109.5600471 388.275200
   7500   7498   7528     1   109.7800468 425.094400
   7501   7504   7505     1   109.5600471 388.275200
   7501   7504   7506     1   109.5600471 388.275200
   7502   7501   7504     1   109.8000471 387.438400
   7502   7501   7503     1   107.5800459 329.699200
   7503   7501   7504     1   109.8000471 387.438400
   7505   7504   7507     1   109.8800469 414.216000
   7505   7504   7506     1   108.4600466 328.025600
   7506   7504   7507     1   109.8800469 414.216000
   7507   7508   7509     1   109.8800469 414.216000
   7507   7508   7510     1   109.8800469 414.216000
   7507   7518   7519     1   109.8800469 414.216000
   7507   7518   7520     1   109.8800469 414.216000
   7508   7511   7512     1   109.8000471 387.438400
   7508   7511   7513     1   109.8000471 387.438400
   7509   7508   7511     1   109.5600471 388.275200
   7509   7508   7510     1   108.4600466 328.025600
   7510   7508   7511     1   109.5600471 388.275200
   7512   7511   7514     1   108.7700466 392.459200
   7512   7511   7513     1   107.5800459 329.699200
   7513   7511   7514     1   108.7700466 392.459200
   7514   7516   7517     1   106.5500460 417.563200
   7518   7521   7522     1   109.8000471 387.438400
   7518   7521   7523     1   109.8000471 387.438400
   7519   7518   7521     1   109.5600471 388.275200
   7519   7518   7520     1   108.4600466 328.025600
   7520   7518   7521     1   109.5600471 388.275200
   7522   7521   7524     1   108.7700466 392.459200
   7522   7521   7523     1   107.5800459 329.699200
   7523   7521   7524     1   108.7700466 392.459200
   7524   7526   7527     1   106.5500460 417.563200
   7529   7532   7533     1   109.8000471 387.438400
   7529   7532   7534     1   109.8000471 387.438400
   7530   7529   7532     1   109.5600471 388.275200
   7530   7529   7559     1   109.7800468 425.094400
   7530   7529   7531     1   108.4600466 328.025600
   7531   7529   7532     1   109.5600471 388.275200
   7531   7529   7559     1   109.7800468 425.094400
   7532   7535   7536     1   109.5600471 388.275200
   7532   7535   7537     1   109.5600471 388.275200
   7533   7532   7535     1   109.8000471 387.438400
   7533   7532   7534     1   107.5800459 329.699200
   7534   7532   7535     1   109.8000471 387.438400
   7536   7535   7538     1   109.8800469 414.216000
   7536   7535   7537     1   108.4600466 328.025600
   7537   7535   7538     1   109.8800469 414.216000
   7538   7539   7540     1   109.8800469 414.216000
   7538   7539   7541     1   109.8800469 414.216000
   7538   7549   7550     1   109.8800469 414.216000
   7538   7549   7551     1   109.8800469 414.216000
   7539   7542   7543     1   109.8000471 387.438400
   7539   7542   7544     1   109.8000471 387.438400
   7540   7539   7542     1   109.5600471 388.275200
   7540   7539   7541     1   108.4600466 328.025600
   7541   7539   7542     1   109.5600471 388.275200
   7543   7542   7545     1   108.7700466 392.459200
   7543   7542   7544     1   107.5800459 329.699200
   7544   7542   7545     1   108.7700466 392.459200
   7545   7547   7548     1   106.5500460 417.563200
   7549   7552   7553     1   109.8000471 387.438400
   7549   7552   7554     1   109.8000471 387.438400
   7550   7549   7552     1   109.5600471 388.275200
   7550   7549   7551     1   108.4600466 328.025600
   7551   7549   7552     1   109.5600471 388.275200
   7553   7552   7555     1   108.7700466 392.459200
   7553   7552   7554     1   107.5800459 329.699200
   7554   7552   7555     1   108.7700466 392.459200
   7555   7557   7558     1   106.5500460 417.563200
   7560   7563   7564     1   109.8000471 387.438400
   7560   7563   7565     1   109.8000471 387.438400
   7561   7560   7563     1   109.5600471 388.275200
   7561   7560   7590     1   109.7800468 425.094400
   7561   7560   7562     1   108.4600466 328.025600
   7562   7560   7563     1   109.5600471 388.275200
   7562   7560   7590     1   109.7800468 425.094400
   7563   7566   7567     1   109.5600471 388.275200
   7563   7566   7568     1   109.5600471 388.275200
   7564   7563   7566     1   109.8000471 387.438400
   7564   7563   7565     1   107.5800459 329.699200
   7565   7563   7566     1   109.8000471 387.438400
   7567   7566   7569     1   109.8800469 414.216000
   7567   7566   7568     1   108.4600466 328.025600
   7568   7566   7569     1   109.8800469 414.216000
   7569   7570   7571     1   109.8800469 414.216000
   7569   7570   7572     1   109.8800469 414.216000
   7569   7580   7581     1   109.8800469 414.216000
   7569   7580   7582     1   109.8800469 414.216000
   7570   7573   7574     1   109.8000471 387.438400
   7570   7573   7575     1   109.8000471 387.438400
   7571   7570   7573     1   109.5600471 388.275200
   7571   7570   7572     1   108.4600466 328.025600
   7572   7570   7573     1   109.5600471 388.275200
   7574   7573   7576     1   108.7700466 392.459200
   7574   7573   7575     1   107.5800459 329.699200
   7575   7573   7576     1   108.7700466 392.459200
   7576   7578   7579     1   106.5500460 417.563200
   7580   7583   7584     1   109.8000471 387.438400
   7580   7583   7585     1   109.8000471 387.438400
   7581   7580   7583     1   109.5600471 388.275200
   7581   7580   7582     1   108.4600466 328.025600
   7582   7580   7583     1   109.5600471 388.275200
   7584   7583   7586     1   108.7700466 392.459200
   7584   7583   7585     1   107.5800459 329.699200
   7585   7583   7586     1   108.7700466 392.459200
   7586   7588   7589     1   106.5500460 417.563200
   7591   7594   7595     1   109.8000471 387.438400
   7591   7594   7596     1   109.8000471 387.438400
   7592   7591   7594     1   109.5600471 388.275200
   7592   7591   7621     1   109.7800468 425.094400
   7592   7591   7593     1   108.4600466 328.025600
   7593   7591   7594     1   109.5600471 388.275200
   7593   7591   7621     1   109.7800468 425.094400
   7594   7597   7598     1   109.5600471 388.275200
   7594   7597   7599     1   109.5600471 388.275200
   7595   7594   7597     1   109.8000471 387.438400
   7595   7594   7596     1   107.5800459 329.699200
   7596   7594   7597     1   109.8000471 387.438400
   7598   7597   7600     1   109.8800469 414.216000
   7598   7597   7599     1   108.4600466 328.025600
   7599   7597   7600     1   109.8800469 414.216000
   7600   7601   7602     1   109.8800469 414.216000
   7600   7601   7603     1   109.8800469 414.216000
   7600   7611   7612     1   109.8800469 414.216000
   7600   7611   7613     1   109.8800469 414.216000
   7601   7604   7605     1   109.8000471 387.438400
   7601   7604   7606     1   109.8000471 387.438400
   7602   7601   7604     1   109.5600471 388.275200
   7602   7601   7603     1   108.4600466 328.025600
   7603   7601   7604     1   109.5600471 388.275200
   7605   7604   7607     1   108.7700466 392.459200
   7605   7604   7606     1   107.5800459 329.699200
   7606   7604   7607     1   108.7700466 392.459200
   7607   7609   7610     1   106.5500460 417.563200
   7611   7614   7615     1   109.8000471 387.438400
   7611   7614   7616     1   109.8000471 387.438400
   7612   7611   7614     1   109.5600471 388.275200
   7612   7611   7613     1   108.4600466 328.025600
   7613   7611   7614     1   109.5600471 388.275200
   7615   7614   7617     1   108.7700466 392.459200
   7615   7614   7616     1   107.5800459 329.699200
   7616   7614   7617     1   108.7700466 392.459200
   7617   7619   7620     1   106.5500460 417.563200

[ dihedrals ]
;    ai     aj     ak     al funct         c0         c1         c2         c3         c4         c5
      1      2      8     14     1  0.0000000  0.6508444  3
      1      5     11     17     1  0.0000000  0.6508444  3
      2      1      5     11     1  180.0000771  0.4184000  2
      2      1      5     11     1  0.0000000  1.6024720  3
      2      8     14     20     1  0.0000000  0.6508444  3
      5      1      2      8     1  180.0000771  0.4184000  2
      5      1      2      8     1  0.0000000  1.6024720  3
      5     11     17     21     1  0.0000000  0.6508444  3
      8     14     20     28     1  180.0000771  2.0083200  2
      8     14     20     28     1  0.0000000  1.2552000  3
      8     14     20     31     1  180.0000771  2.0083200  2
      8     14     20     31     1  0.0000000  1.2552000  3
     11     17     21     22     1  180.0000771  2.0083200  2
     11     17     21     22     1  0.0000000  1.2552000  3
     11     17     21     25     1  180.0000771  2.0083200  2
     11     17     21     25     1  0.0000000  1.2552000  3
     14     20     28     40     1  180.0000771  2.0083200  2
     14     20     28     40     1  0.0000000  1.2552000  3
     14     20     31     43     1  180.0000771  2.0083200  2
     14     20     31     43     1  0.0000000  1.2552000  3
     17     21     22     34     1  180.0000771  2.0083200  2
     17     21     22     34     1  0.0000000  1.2552000  3
     17     21     25     37     1  180.0000771  2.0083200  2
     17     21     25     37     1  0.0000000  1.2552000  3
     20     28     40     49     1  0.0000000  0.6508444  3
     20     31     43     46     1  0.0000000  0.6508444  3
     21     22     34     55     1  0.0000000  0.6508444  3
     21     25     37     52     1  0.0000000  0.6508444  3
     22     21     25     37     1  180.0000771  2.0083200  2
     22     21     25     37     1  0.0000000  1.2552000  3
     22     34     55    173     1  0.0000000  0.6508444  3
     25     21     22     34     1  180.0000771  2.0083200  2
     25     21     22     34     1  0.0000000  1.2552000  3
     25     37     52    144     1  0.0000000  0.6508444  3
     28     20     31     43     1  180.0000771  2.0083200  2
     28     20     31     43     1  0.0000000  1.2552000  3
     28     40     49    115     1  0.0000000  0.6508444  3
     31     20     28     40     1  180.0000771  2.0083200  2
     31     20     28     40     1  0.0000000  1.2552000  3
     31     43     46     86     1  0.0000000  0.6508444  3
     34     55    173    164     1  180.0000771  0.4184000  2
     34     55    173    164     1  0.0000000  1.6024720  3
     37     52    144    135     1  180.0000771  0.4184000  2
     37     52    144    135     1  0.0000000  1.6024720  3
     40     49    115    106     1  180.0000771  0.4184000  2
     40     49    115    106     1  0.0000000  1.6024720  3
     43     46     86     77     1  180.0000771  0.4184000  2
     43     46     86     77     1  0.0000000  1.6024720  3
     46     86     77     68     1  180.0000771  0.4184000  2
     46     86     77     68     1  0.0000000  1.6024720  3
     49    115    106     97     1  180.0000771  0.4184000  2
     49    115    106     97     1  0.0000000  1.6024720  3
     52    144    135    126     1  180.0000771  0.4184000  2
     52    144    135    126     1  0.0000000  1.6024720  3
     55    173    164    155     1  180.0000771  0.4184000  2
     55    173    164    155     1  0.0000000  1.6024720  3
     58     59     71     83     1  0.0000000  0.6508444  3
     58     62     74     80     1  0.0000000  0.6508444  3
     58     65     68     77     1  0.0000000  0.6508444  3
     59     58     62     74     1  180.0000771  2.0083200  2
     59     58     62     74     1  0.0000000  1.2552000  3
     59     58     65     68     1  180.0000771  2.0083200  2
     59     58     65     68     1  0.0000000  1.2552000  3
     59     71     83    231     1  0.0000000  0.6508444  3
     62     58     59     71     1  180.0000771  2.0083200  2
     62     58     59     71     1  0.0000000  1.2552000  3
     62     58     65     68     1  180.0000771  2.0083200  2
     62     58     65     68     1  0.0000000  1.2552000  3
     62     74     80    202     1  0.0000000  0.6508444  3
     65     58     59     71     1  180.0000771  2.0083200  2
     65     58     59     71     1  0.0000000  1.2552000  3
     65     58     62     74     1  180.0000771  2.0083200  2
     65     58     62     74     1  0.0000000  1.2552000  3
     65     68     77     86     1  0.0000000  0.6508444  3
     71     83    231    222     1  180.0000771  0.4184000  2
     71     83    231    222     1  0.0000000  1.6024720  3
     74     80    202    193     1  180.0000771  0.4184000  2
     74     80    202    193     1  0.0000000  1.6024720  3
     80    202    193    184     1  180.0000771  0.4184000  2
     80    202    193    184     1  0.0000000  1.6024720  3
     83    231    222    213     1  180.0000771  0.4184000  2
     83    231    222    213     1  0.0000000  1.6024720  3
     87     88    100    112     1  0.0000000  0.6508444  3
     87     91    103    109     1  0.0000000  0.6508444  3
     87     94     97    106     1  0.0000000  0.6508444  3
     88     87     91    103     1  180.0000771  2.0083200  2
     88     87     91    103     1  0.0000000  1.2552000  3
     88     87     94     97     1  180.0000771  2.0083200  2
     88     87     94     97     1  0.0000000  1.2552000  3
     88    100    112    289     1  0.0000000  0.6508444  3
     91     87     88    100     1  180.0000771  2.0083200  2
     91     87     88    100     1  0.0000000  1.2552000  3
     91     87     94     97     1  180.0000771  2.0083200  2
     91     87     94     97     1  0.0000000  1.2552000  3
     91    103    109    260     1  0.0000000  0.6508444  3
     94     87     88    100     1  180.0000771  2.0083200  2
     94     87     88    100     1  0.0000000  1.2552000  3
     94     87     91    103     1  180.0000771  2.0083200  2
     94     87     91    103     1  0.0000000  1.2552000  3
     94     97    106    115     1  0.0000000  0.6508444  3
    100    112    289    280     1  180.0000771  0.4184000  2
    100    112    289    280     1  0.0000000  1.6024720  3
    103    109    260    251     1  180.0000771  0.4184000  2
    103    109    260    251     1  0.0000000  1.6024720  3
    109    260    251    242     1  180.0000771  0.4184000  2
    109    260    251    242     1  0.0000000  1.6024720  3
    112    289    280    271     1  180.0000771  0.4184000  2
    112    289    280    271     1  0.0000000  1.6024720  3
    116    117    129    141     1  0.0000000  0.6508444  3
    116    120    132    138     1  0.0000000  0.6508444  3
    116    123    126    135     1  0.0000000  0.6508444  3
    117    116    120    132     1  180.0000771  2.0083200  2
    117    116    120    132     1  0.0000000  1.2552000  3
    117    116    123    126     1  180.0000771  2.0083200  2
    117    116    123    126     1  0.0000000  1.2552000  3
    117    129    141    347     1  0.0000000  0.6508444  3
    120    116    117    129     1  180.0000771  2.0083200  2
    120    116    117    129     1  0.0000000  1.2552000  3
    120    116    123    126     1  180.0000771  2.0083200  2
    120    116    123    126     1  0.0000000  1.2552000  3
    120    132    138    318     1  0.0000000  0.6508444  3
    123    116    117    129     1  180.0000771  2.0083200  2
    123    116    117    129     1  0.0000000  1.2552000  3
    123    116    120    132     1  180.0000771  2.0083200  2
    123    116    120    132     1  0.0000000  1.2552000  3
    123    126    135    144     1  0.0000000  0.6508444  3
    129    141    347    338     1  180.0000771  0.4184000  2
    129    141    347    338     1  0.0000000  1.6024720  3
    132    138    318    309     1  180.0000771  0.4184000  2
    132    138    318    309     1  0.0000000  1.6024720  3
    138    318    309    300     1  180.0000771  0.4184000  2
    138    318    309    300     1  0.0000000  1.6024720  3
    141    347    338    329     1  180.0000771  0.4184000  2
    141    347    338    329     1  0.0000000  1.6024720  3
    145    146    158    170     1  0.0000000  0.6508444  3
    145    149    161    167     1  0.0000000  0.6508444  3
    145    152    155    164     1  0.0000000  0.6508444  3
    146    145    149    161     1  180.0000771  2.0083200  2
    146    145    149    161     1  0.0000000  1.2552000  3
    146    145    152    155     1  180.0000771  2.0083200  2
    146    145    152    155     1  0.0000000  1.2552000  3
    146    158    170    405     1  0.0000000  0.6508444  3
    149    145    146    158     1  180.0000771  2.0083200  2
    149    145    146    158     1  0.0000000  1.2552000  3
    149    145    152    155     1  180.0000771  2.0083200  2
    149    145    152    155     1  0.0000000  1.2552000  3
    149    161    167    376     1  0.0000000  0.6508444  3
    152    145    146    158     1  180.0000771  2.0083200  2
    152    145    146    158     1  0.0000000  1.2552000  3
    152    145    149    161     1  180.0000771  2.0083200  2
    152    145    149    161     1  0.0000000  1.2552000  3
    152    155    164    173     1  0.0000000  0.6508444  3
    158    170    405    396     1  180.0000771  0.4184000  2
    158    170    405    396     1  0.0000000  1.6024720  3
    161    167    376    367     1  180.0000771  0.4184000  2
    161    167    376    367     1  0.0000000  1.6024720  3
    167    376    367    358     1  180.0000771  0.4184000  2
    167    376    367    358     1  0.0000000  1.6024720  3
    170    405    396    387     1  180.0000771  0.4184000  2
    170    405    396    387     1  0.0000000  1.6024720  3
    174    175    187    199     1  0.0000000  0.6508444  3
    174    178    190    196     1  0.0000000  0.6508444  3
    174    181    184    193     1  0.0000000  0.6508444  3
    175    174    178    190     1  180.0000771  2.0083200  2
    175    174    178    190     1  0.0000000  1.2552000  3
    175    174    181    184     1  180.0000771  2.0083200  2
    175    174    181    184     1  0.0000000  1.2552000  3
    175    187    199    463     1  0.0000000  0.6508444  3
    178    174    175    187     1  180.0000771  2.0083200  2
    178    174    175    187     1  0.0000000  1.2552000  3
    178    174    181    184     1  180.0000771  2.0083200  2
    178    174    181    184     1  0.0000000  1.2552000  3
    178    190    196    434     1  0.0000000  0.6508444  3
    181    174    175    187     1  180.0000771  2.0083200  2
    181    174    175    187     1  0.0000000  1.2552000  3
    181    174    178    190     1  180.0000771  2.0083200  2
    181    174    178    190     1  0.0000000  1.2552000  3
    181    184    193    202     1  0.0000000  0.6508444  3
    187    199    463    454     1  180.0000771  0.4184000  2
    187    199    463    454     1  0.0000000  1.6024720  3
    190    196    434    425     1  180.0000771  0.4184000  2
    190    196    434    425     1  0.0000000  1.6024720  3
    196    434    425    416     1  180.0000771  0.4184000  2
    196    434    425    416     1  0.0000000  1.6024720  3
    199    463    454    445     1  180.0000771  0.4184000  2
    199    463    454    445     1  0.0000000  1.6024720  3
    203    204    216    228     1  0.0000000  0.6508444  3
    203    207    219    225     1  0.0000000  0.6508444  3
    203    210    213    222     1  0.0000000  0.6508444  3
    204    203    207    219     1  180.0000771  2.0083200  2
    204    203    207    219     1  0.0000000  1.2552000  3
    204    203    210    213     1  180.0000771  2.0083200  2
    204    203    210    213     1  0.0000000  1.2552000  3
    204    216    228    521     1  0.0000000  0.6508444  3
    207    203    204    216     1  180.0000771  2.0083200  2
    207    203    204    216     1  0.0000000  1.2552000  3
    207    203    210    213     1  180.0000771  2.0083200  2
    207    203    210    213     1  0.0000000  1.2552000  3
    207    219    225    492     1  0.0000000  0.6508444  3
    210    203    204    216     1  180.0000771  2.0083200  2
    210    203    204    216     1  0.0000000  1.2552000  3
    210    203    207    219     1  180.0000771  2.0083200  2
    210    203    207    219     1  0.0000000  1.2552000  3
    210    213    222    231     1  0.0000000  0.6508444  3
    216    228    521    512     1  180.0000771  0.4184000  2
    216    228    521    512     1  0.0000000  1.6024720  3
    219    225    492    483     1  180.0000771  0.4184000  2
    219    225    492    483     1  0.0000000  1.6024720  3
    225    492    483    474     1  180.0000771  0.4184000  2
    225    492    483    474     1  0.0000000  1.6024720  3
    228    521    512    503     1  180.0000771  0.4184000  2
    228    521    512    503     1  0.0000000  1.6024720  3
    232    233    245    257     1  0.0000000  0.6508444  3
    232    236    248    254     1  0.0000000  0.6508444  3
    232    239    242    251     1  0.0000000  0.6508444  3
    233    232    236    248     1  180.0000771  2.0083200  2
    233    232    236    248     1  0.0000000  1.2552000  3
    233    232    239    242     1  180.0000771  2.0083200  2
    233    232    239    242     1  0.0000000  1.2552000  3
    233    245    257    579     1  0.0000000  0.6508444  3
    236    232    233    245     1  180.0000771  2.0083200  2
    236    232    233    245     1  0.0000000  1.2552000  3
    236    232    239    242     1  180.0000771  2.0083200  2
    236    232    239    242     1  0.0000000  1.2552000  3
    236    248    254    550     1  0.0000000  0.6508444  3
    239    232    233    245     1  180.0000771  2.0083200  2
    239    232    233    245     1  0.0000000  1.2552000  3
    239    232    236    248     1  180.0000771  2.0083200  2
    239    232    236    248     1  0.0000000  1.2552000  3
    239    242    251    260     1  0.0000000  0.6508444  3
    245    257    579    570     1  180.0000771  0.4184000  2
    245    257    579    570     1  0.0000000  1.6024720  3
    248    254    550    541     1  180.0000771  0.4184000  2
    248    254    550    541     1  0.0000000  1.6024720  3
    254    550    541    532     1  180.0000771  0.4184000  2
    254    550    541    532     1  0.0000000  1.6024720  3
    257    579    570    561     1  180.0000771  0.4184000  2
    257    579    570    561     1  0.0000000  1.6024720  3
    261    262    274    286     1  0.0000000  0.6508444  3
    261    265    277    283     1  0.0000000  0.6508444  3
    261    268    271    280     1  0.0000000  0.6508444  3
    262    261    265    277     1  180.0000771  2.0083200  2
    262    261    265    277     1  0.0000000  1.2552000  3
    262    261    268    271     1  180.0000771  2.0083200  2
    262    261    268    271     1  0.0000000  1.2552000  3
    262    274    286    637     1  0.0000000  0.6508444  3
    265    261    262    274     1  180.0000771  2.0083200  2
    265    261    262    274     1  0.0000000  1.2552000  3
    265    261    268    271     1  180.0000771  2.0083200  2
    265    261    268    271     1  0.0000000  1.2552000  3
    265    277    283    608     1  0.0000000  0.6508444  3
    268    261    262    274     1  180.0000771  2.0083200  2
    268    261    262    274     1  0.0000000  1.2552000  3
    268    261    265    277     1  180.0000771  2.0083200  2
    268    261    265    277     1  0.0000000  1.2552000  3
    268    271    280    289     1  0.0000000  0.6508444  3
    274    286    637    628     1  180.0000771  0.4184000  2
    274    286    637    628     1  0.0000000  1.6024720  3
    277    283    608    599     1  180.0000771  0.4184000  2
    277    283    608    599     1  0.0000000  1.6024720  3
    283    608    599    590     1  180.0000771  0.4184000  2
    283    608    599    590     1  0.0000000  1.6024720  3
    286    637    628    619     1  180.0000771  0.4184000  2
    286    637    628    619     1  0.0000000  1.6024720  3
    290    291    303    315     1  0.0000000  0.6508444  3
    290    294    306    312     1  0.0000000  0.6508444  3
    290    297    300    309     1  0.0000000  0.6508444  3
    291    290    294    306     1  180.0000771  2.0083200  2
    291    290    294    306     1  0.0000000  1.2552000  3
    291    290    297    300     1  180.0000771  2.0083200  2
    291    290    297    300     1  0.0000000  1.2552000  3
    291    303    315    695     1  0.0000000  0.6508444  3
    294    290    291    303     1  180.0000771  2.0083200  2
    294    290    291    303     1  0.0000000  1.2552000  3
    294    290    297    300     1  180.0000771  2.0083200  2
    294    290    297    300     1  0.0000000  1.2552000  3
    294    306    312    666     1  0.0000000  0.6508444  3
    297    290    291    303     1  180.0000771  2.0083200  2
    297    290    291    303     1  0.0000000  1.2552000  3
    297    290    294    306     1  180.0000771  2.0083200  2
    297    290    294    306     1  0.0000000  1.2552000  3
    297    300    309    318     1  0.0000000  0.6508444  3
    303    315    695    686     1  180.0000771  0.4184000  2
    303    315    695    686     1  0.0000000  1.6024720  3
    306    312    666    657     1  180.0000771  0.4184000  2
    306    312    666    657     1  0.0000000  1.6024720  3
    312    666    657    648     1  180.0000771  0.4184000  2
    312    666    657    648     1  0.0000000  1.6024720  3
    315    695    686    677     1  180.0000771  0.4184000  2
    315    695    686    677     1  0.0000000  1.6024720  3
    319    320    332    344     1  0.0000000  0.6508444  3
    319    323    335    341     1  0.0000000  0.6508444  3
    319    326    329    338     1  0.0000000  0.6508444  3
    320    319    323    335     1  180.0000771  2.0083200  2
    320    319    323    335     1  0.0000000  1.2552000  3
    320    319    326    329     1  180.0000771  2.0083200  2
    320    319    326    329     1  0.0000000  1.2552000  3
    320    332    344    753     1  0.0000000  0.6508444  3
    323    319    320    332     1  180.0000771  2.0083200  2
    323    319    320    332     1  0.0000000  1.2552000  3
    323    319    326    329     1  180.0000771  2.0083200  2
    323    319    326    329     1  0.0000000  1.2552000  3
    323    335    341    724     1  0.0000000  0.6508444  3
    326    319    320    332     1  180.0000771  2.0083200  2
    326    319    320    332     1  0.0000000  1.2552000  3
    326    319    323    335     1  180.0000771  2.0083200  2
    326    319    323    335     1  0.0000000  1.2552000  3
    326    329    338    347     1  0.0000000  0.6508444  3
    332    344    753    744     1  180.0000771  0.4184000  2
    332    344    753    744     1  0.0000000  1.6024720  3
    335    341    724    715     1  180.0000771  0.4184000  2
    335    341    724    715     1  0.0000000  1.6024720  3
    341    724    715    706     1  180.0000771  0.4184000  2
    341    724    715    706     1  0.0000000  1.6024720  3
    344    753    744    735     1  180.0000771  0.4184000  2
    344    753    744    735     1  0.0000000  1.6024720  3
    348    349    361    373     1  0.0000000  0.6508444  3
    348    352    364    370     1  0.0000000  0.6508444  3
    348    355    358    367     1  0.0000000  0.6508444  3
    349    348    352    364     1  180.0000771  2.0083200  2
    349    348    352    364     1  0.0000000  1.2552000  3
    349    348    355    358     1  180.0000771  2.0083200  2
    349    348    355    358     1  0.0000000  1.2552000  3
    349    361    373    811     1  0.0000000  0.6508444  3
    352    348    349    361     1  180.0000771  2.0083200  2
    352    348    349    361     1  0.0000000  1.2552000  3
    352    348    355    358     1  180.0000771  2.0083200  2
    352    348    355    358     1  0.0000000  1.2552000  3
    352    364    370    782     1  0.0000000  0.6508444  3
    355    348    349    361     1  180.0000771  2.0083200  2
    355    348    349    361     1  0.0000000  1.2552000  3
    355    348    352    364     1  180.0000771  2.0083200  2
    355    348    352    364     1  0.0000000  1.2552000  3
    355    358    367    376     1  0.0000000  0.6508444  3
    361    373    811    802     1  180.0000771  0.4184000  2
    361    373    811    802     1  0.0000000  1.6024720  3
    364    370    782    773     1  180.0000771  0.4184000  2
    364    370    782    773     1  0.0000000  1.6024720  3
    370    782    773    764     1  180.0000771  0.4184000  2
    370    782    773    764     1  0.0000000  1.6024720  3
    373    811    802    793     1  180.0000771  0.4184000  2
    373    811    802    793     1  0.0000000  1.6024720  3
    377    378    390    402     1  0.0000000  0.6508444  3
    377    381    393    399     1  0.0000000  0.6508444  3
    377    384    387    396     1  0.0000000  0.6508444  3
    378    377    381    393     1  180.0000771  2.0083200  2
    378    377    381    393     1  0.0000000  1.2552000  3
    378    377    384    387     1  180.0000771  2.0083200  2
    378    377    384    387     1  0.0000000  1.2552000  3
    378    390    402    869     1  0.0000000  0.6508444  3
    381    377    378    390     1  180.0000771  2.0083200  2
    381    377    378    390     1  0.0000000  1.2552000  3
    381    377    384    387     1  180.0000771  2.0083200  2
    381    377    384    387     1  0.0000000  1.2552000  3
    381    393    399    840     1  0.0000000  0.6508444  3
    384    377    378    390     1  180.0000771  2.0083200  2
    384    377    378    390     1  0.0000000  1.2552000  3
    384    377    381    393     1  180.0000771  2.0083200  2
    384    377    381    393     1  0.0000000  1.2552000  3
    384    387    396    405     1  0.0000000  0.6508444  3
    390    402    869    860     1  180.0000771  0.4184000  2
    390    402    869    860     1  0.0000000  1.6024720  3
    393    399    840    831     1  180.0000771  0.4184000  2
    393    399    840    831     1  0.0000000  1.6024720  3
    399    840    831    822     1  180.0000771  0.4184000  2
    399    840    831    822     1  0.0000000  1.6024720  3
    402    869    860    851     1  180.0000771  0.4184000  2
    402    869    860    851     1  0.0000000  1.6024720  3
    406    407    419    431     1  0.0000000  0.6508444  3
    406    410    422    428     1  0.0000000  0.6508444  3
    406    413    416    425     1  0.0000000  0.6508444  3
    407    406    410    422     1  180.0000771  2.0083200  2
    407    406    410    422     1  0.0000000  1.2552000  3
    407    406    413    416     1  180.0000771  2.0083200  2
    407    406    413    416     1  0.0000000  1.2552000  3
    407    419    431    927     1  0.0000000  0.6508444  3
    410    406    407    419     1  180.0000771  2.0083200  2
    410    406    407    419     1  0.0000000  1.2552000  3
    410    406    413    416     1  180.0000771  2.0083200  2
    410    406    413    416     1  0.0000000  1.2552000  3
    410    422    428    898     1  0.0000000  0.6508444  3
    413    406    407    419     1  180.0000771  2.0083200  2
    413    406    407    419     1  0.0000000  1.2552000  3
    413    406    410    422     1  180.0000771  2.0083200  2
    413    406    410    422     1  0.0000000  1.2552000  3
    413    416    425    434     1  0.0000000  0.6508444  3
    419    431    927    918     1  180.0000771  0.4184000  2
    419    431    927    918     1  0.0000000  1.6024720  3
    422    428    898    889     1  180.0000771  0.4184000  2
    422    428    898    889     1  0.0000000  1.6024720  3
    428    898    889    880     1  180.0000771  0.4184000  2
    428    898    889    880     1  0.0000000  1.6024720  3
    431    927    918    909     1  180.0000771  0.4184000  2
    431    927    918    909     1  0.0000000  1.6024720  3
    435    436    448    460     1  0.0000000  0.6508444  3
    435    439    451    457     1  0.0000000  0.6508444  3
    435    442    445    454     1  0.0000000  0.6508444  3
    436    435    439    451     1  180.0000771  2.0083200  2
    436    435    439    451     1  0.0000000  1.2552000  3
    436    435    442    445     1  180.0000771  2.0083200  2
    436    435    442    445     1  0.0000000  1.2552000  3
    436    448    460    985     1  0.0000000  0.6508444  3
    439    435    436    448     1  180.0000771  2.0083200  2
    439    435    436    448     1  0.0000000  1.2552000  3
    439    435    442    445     1  180.0000771  2.0083200  2
    439    435    442    445     1  0.0000000  1.2552000  3
    439    451    457    956     1  0.0000000  0.6508444  3
    442    435    436    448     1  180.0000771  2.0083200  2
    442    435    436    448     1  0.0000000  1.2552000  3
    442    435    439    451     1  180.0000771  2.0083200  2
    442    435    439    451     1  0.0000000  1.2552000  3
    442    445    454    463     1  0.0000000  0.6508444  3
    448    460    985    976     1  180.0000771  0.4184000  2
    448    460    985    976     1  0.0000000  1.6024720  3
    451    457    956    947     1  180.0000771  0.4184000  2
    451    457    956    947     1  0.0000000  1.6024720  3
    457    956    947    938     1  180.0000771  0.4184000  2
    457    956    947    938     1  0.0000000  1.6024720  3
    460    985    976    967     1  180.0000771  0.4184000  2
    460    985    976    967     1  0.0000000  1.6024720  3
    464    465    477    489     1  0.0000000  0.6508444  3
    464    468    480    486     1  0.0000000  0.6508444  3
    464    471    474    483     1  0.0000000  0.6508444  3
    465    464    468    480     1  180.0000771  2.0083200  2
    465    464    468    480     1  0.0000000  1.2552000  3
    465    464    471    474     1  180.0000771  2.0083200  2
    465    464    471    474     1  0.0000000  1.2552000  3
    465    477    489   1043     1  0.0000000  0.6508444  3
    468    464    465    477     1  180.0000771  2.0083200  2
    468    464    465    477     1  0.0000000  1.2552000  3
    468    464    471    474     1  180.0000771  2.0083200  2
    468    464    471    474     1  0.0000000  1.2552000  3
    468    480    486   1014     1  0.0000000  0.6508444  3
    471    464    465    477     1  180.0000771  2.0083200  2
    471    464    465    477     1  0.0000000  1.2552000  3
    471    464    468    480     1  180.0000771  2.0083200  2
    471    464    468    480     1  0.0000000  1.2552000  3
    471    474    483    492     1  0.0000000  0.6508444  3
    477    489   1043   1034     1  180.0000771  0.4184000  2
    477    489   1043   1034     1  0.0000000  1.6024720  3
    480    486   1014   1005     1  180.0000771  0.4184000  2
    480    486   1014   1005     1  0.0000000  1.6024720  3
    486   1014   1005    996     1  180.0000771  0.4184000  2
    486   1014   1005    996     1  0.0000000  1.6024720  3
    489   1043   1034   1025     1  180.0000771  0.4184000  2
    489   1043   1034   1025     1  0.0000000  1.6024720  3
    493    494    506    518     1  0.0000000  0.6508444  3
    493    497    509    515     1  0.0000000  0.6508444  3
    493    500    503    512     1  0.0000000  0.6508444  3
    494    493    497    509     1  180.0000771  2.0083200  2
    494    493    497    509     1  0.0000000  1.2552000  3
    494    493    500    503     1  180.0000771  2.0083200  2
    494    493    500    503     1  0.0000000  1.2552000  3
    494    506    518   1101     1  0.0000000  0.6508444  3
    497    493    494    506     1  180.0000771  2.0083200  2
    497    493    494    506     1  0.0000000  1.2552000  3
    497    493    500    503     1  180.0000771  2.0083200  2
    497    493    500    503     1  0.0000000  1.2552000  3
    497    509    515   1072     1  0.0000000  0.6508444  3
    500    493    494    506     1  180.0000771  2.0083200  2
    500    493    494    506     1  0.0000000  1.2552000  3
    500    493    497    509     1  180.0000771  2.0083200  2
    500    493    497    509     1  0.0000000  1.2552000  3
    500    503    512    521     1  0.0000000  0.6508444  3
    506    518   1101   1092     1  180.0000771  0.4184000  2
    506    518   1101   1092     1  0.0000000  1.6024720  3
    509    515   1072   1063     1  180.0000771  0.4184000  2
    509    515   1072   1063     1  0.0000000  1.6024720  3
    515   1072   1063   1054     1  180.0000771  0.4184000  2
    515   1072   1063   1054     1  0.0000000  1.6024720  3
    518   1101   1092   1083     1  180.0000771  0.4184000  2
    518   1101   1092   1083     1  0.0000000  1.6024720  3
    522    523    535    547     1  0.0000000  0.6508444  3
    522    526    538    544     1  0.0000000  0.6508444  3
    522    529    532    541     1  0.0000000  0.6508444  3
    523    522    526    538     1  180.0000771  2.0083200  2
    523    522    526    538     1  0.0000000  1.2552000  3
    523    522    529    532     1  180.0000771  2.0083200  2
    523    522    529    532     1  0.0000000  1.2552000  3
    523    535    547   1159     1  0.0000000  0.6508444  3
    526    522    523    535     1  180.0000771  2.0083200  2
    526    522    523    535     1  0.0000000  1.2552000  3
    526    522    529    532     1  180.0000771  2.0083200  2
    526    522    529    532     1  0.0000000  1.2552000  3
    526    538    544   1130     1  0.0000000  0.6508444  3
    529    522    523    535     1  180.0000771  2.0083200  2
    529    522    523    535     1  0.0000000  1.2552000  3
    529    522    526    538     1  180.0000771  2.0083200  2
    529    522    526    538     1  0.0000000  1.2552000  3
    529    532    541    550     1  0.0000000  0.6508444  3
    535    547   1159   1150     1  180.0000771  0.4184000  2
    535    547   1159   1150     1  0.0000000  1.6024720  3
    538    544   1130   1121     1  180.0000771  0.4184000  2
    538    544   1130   1121     1  0.0000000  1.6024720  3
    544   1130   1121   1112     1  180.0000771  0.4184000  2
    544   1130   1121   1112     1  0.0000000  1.6024720  3
    547   1159   1150   1141     1  180.0000771  0.4184000  2
    547   1159   1150   1141     1  0.0000000  1.6024720  3
    551    552    564    576     1  0.0000000  0.6508444  3
    551    555    567    573     1  0.0000000  0.6508444  3
    551    558    561    570     1  0.0000000  0.6508444  3
    552    551    555    567     1  180.0000771  2.0083200  2
    552    551    555    567     1  0.0000000  1.2552000  3
    552    551    558    561     1  180.0000771  2.0083200  2
    552    551    558    561     1  0.0000000  1.2552000  3
    552    564    576   1217     1  0.0000000  0.6508444  3
    555    551    552    564     1  180.0000771  2.0083200  2
    555    551    552    564     1  0.0000000  1.2552000  3
    555    551    558    561     1  180.0000771  2.0083200  2
    555    551    558    561     1  0.0000000  1.2552000  3
    555    567    573   1188     1  0.0000000  0.6508444  3
    558    551    552    564     1  180.0000771  2.0083200  2
    558    551    552    564     1  0.0000000  1.2552000  3
    558    551    555    567     1  180.0000771  2.0083200  2
    558    551    555    567     1  0.0000000  1.2552000  3
    558    561    570    579     1  0.0000000  0.6508444  3
    564    576   1217   1208     1  180.0000771  0.4184000  2
    564    576   1217   1208     1  0.0000000  1.6024720  3
    567    573   1188   1179     1  180.0000771  0.4184000  2
    567    573   1188   1179     1  0.0000000  1.6024720  3
    573   1188   1179   1170     1  180.0000771  0.4184000  2
    573   1188   1179   1170     1  0.0000000  1.6024720  3
    576   1217   1208   1199     1  180.0000771  0.4184000  2
    576   1217   1208   1199     1  0.0000000  1.6024720  3
    580    581    593    605     1  0.0000000  0.6508444  3
    580    584    596    602     1  0.0000000  0.6508444  3
    580    587    590    599     1  0.0000000  0.6508444  3
    581    580    584    596     1  180.0000771  2.0083200  2
    581    580    584    596     1  0.0000000  1.2552000  3
    581    580    587    590     1  180.0000771  2.0083200  2
    581    580    587    590     1  0.0000000  1.2552000  3
    581    593    605   1275     1  0.0000000  0.6508444  3
    584    580    581    593     1  180.0000771  2.0083200  2
    584    580    581    593     1  0.0000000  1.2552000  3
    584    580    587    590     1  180.0000771  2.0083200  2
    584    580    587    590     1  0.0000000  1.2552000  3
    584    596    602   1246     1  0.0000000  0.6508444  3
    587    580    581    593     1  180.0000771  2.0083200  2
    587    580    581    593     1  0.0000000  1.2552000  3
    587    580    584    596     1  180.0000771  2.0083200  2
    587    580    584    596     1  0.0000000  1.2552000  3
    587    590    599    608     1  0.0000000  0.6508444  3
    593    605   1275   1266     1  180.0000771  0.4184000  2
    593    605   1275   1266     1  0.0000000  1.6024720  3
    596    602   1246   1237     1  180.0000771  0.4184000  2
    596    602   1246   1237     1  0.0000000  1.6024720  3
    602   1246   1237   1228     1  180.0000771  0.4184000  2
    602   1246   1237   1228     1  0.0000000  1.6024720  3
    605   1275   1266   1257     1  180.0000771  0.4184000  2
    605   1275   1266   1257     1  0.0000000  1.6024720  3
    609    610    622    634     1  0.0000000  0.6508444  3
    609    613    625    631     1  0.0000000  0.6508444  3
    609    616    619    628     1  0.0000000  0.6508444  3
    610    609    613    625     1  180.0000771  2.0083200  2
    610    609    613    625     1  0.0000000  1.2552000  3
    610    609    616    619     1  180.0000771  2.0083200  2
    610    609    616    619     1  0.0000000  1.2552000  3
    610    622    634   1333     1  0.0000000  0.6508444  3
    613    609    610    622     1  180.0000771  2.0083200  2
    613    609    610    622     1  0.0000000  1.2552000  3
    613    609    616    619     1  180.0000771  2.0083200  2
    613    609    616    619     1  0.0000000  1.2552000  3
    613    625    631   1304     1  0.0000000  0.6508444  3
    616    609    610    622     1  180.0000771  2.0083200  2
    616    609    610    622     1  0.0000000  1.2552000  3
    616    609    613    625     1  180.0000771  2.0083200  2
    616    609    613    625     1  0.0000000  1.2552000  3
    616    619    628    637     1  0.0000000  0.6508444  3
    622    634   1333   1324     1  180.0000771  0.4184000  2
    622    634   1333   1324     1  0.0000000  1.6024720  3
    625    631   1304   1295     1  180.0000771  0.4184000  2
    625    631   1304   1295     1  0.0000000  1.6024720  3
    631   1304   1295   1286     1  180.0000771  0.4184000  2
    631   1304   1295   1286     1  0.0000000  1.6024720  3
    634   1333   1324   1315     1  180.0000771  0.4184000  2
    634   1333   1324   1315     1  0.0000000  1.6024720  3
    638    639    651    663     1  0.0000000  0.6508444  3
    638    642    654    660     1  0.0000000  0.6508444  3
    638    645    648    657     1  0.0000000  0.6508444  3
    639    638    642    654     1  180.0000771  2.0083200  2
    639    638    642    654     1  0.0000000  1.2552000  3
    639    638    645    648     1  180.0000771  2.0083200  2
    639    638    645    648     1  0.0000000  1.2552000  3
    639    651    663   1391     1  0.0000000  0.6508444  3
    642    638    639    651     1  180.0000771  2.0083200  2
    642    638    639    651     1  0.0000000  1.2552000  3
    642    638    645    648     1  180.0000771  2.0083200  2
    642    638    645    648     1  0.0000000  1.2552000  3
    642    654    660   1362     1  0.0000000  0.6508444  3
    645    638    639    651     1  180.0000771  2.0083200  2
    645    638    639    651     1  0.0000000  1.2552000  3
    645    638    642    654     1  180.0000771  2.0083200  2
    645    638    642    654     1  0.0000000  1.2552000  3
    645    648    657    666     1  0.0000000  0.6508444  3
    651    663   1391   1382     1  180.0000771  0.4184000  2
    651    663   1391   1382     1  0.0000000  1.6024720  3
    654    660   1362   1353     1  180.0000771  0.4184000  2
    654    660   1362   1353     1  0.0000000  1.6024720  3
    660   1362   1353   1344     1  180.0000771  0.4184000  2
    660   1362   1353   1344     1  0.0000000  1.6024720  3
    663   1391   1382   1373     1  180.0000771  0.4184000  2
    663   1391   1382   1373     1  0.0000000  1.6024720  3
    667    668    680    692     1  0.0000000  0.6508444  3
    667    671    683    689     1  0.0000000  0.6508444  3
    667    674    677    686     1  0.0000000  0.6508444  3
    668    667    671    683     1  180.0000771  2.0083200  2
    668    667    671    683     1  0.0000000  1.2552000  3
    668    667    674    677     1  180.0000771  2.0083200  2
    668    667    674    677     1  0.0000000  1.2552000  3
    668    680    692   1449     1  0.0000000  0.6508444  3
    671    667    668    680     1  180.0000771  2.0083200  2
    671    667    668    680     1  0.0000000  1.2552000  3
    671    667    674    677     1  180.0000771  2.0083200  2
    671    667    674    677     1  0.0000000  1.2552000  3
    671    683    689   1420     1  0.0000000  0.6508444  3
    674    667    668    680     1  180.0000771  2.0083200  2
    674    667    668    680     1  0.0000000  1.2552000  3
    674    667    671    683     1  180.0000771  2.0083200  2
    674    667    671    683     1  0.0000000  1.2552000  3
    674    677    686    695     1  0.0000000  0.6508444  3
    680    692   1449   1440     1  180.0000771  0.4184000  2
    680    692   1449   1440     1  0.0000000  1.6024720  3
    683    689   1420   1411     1  180.0000771  0.4184000  2
    683    689   1420   1411     1  0.0000000  1.6024720  3
    689   1420   1411   1402     1  180.0000771  0.4184000  2
    689   1420   1411   1402     1  0.0000000  1.6024720  3
    692   1449   1440   1431     1  180.0000771  0.4184000  2
    692   1449   1440   1431     1  0.0000000  1.6024720  3
    696    697    709    721     1  0.0000000  0.6508444  3
    696    700    712    718     1  0.0000000  0.6508444  3
    696    703    706    715     1  0.0000000  0.6508444  3
    697    696    700    712     1  180.0000771  2.0083200  2
    697    696    700    712     1  0.0000000  1.2552000  3
    697    696    703    706     1  180.0000771  2.0083200  2
    697    696    703    706     1  0.0000000  1.2552000  3
    697    709    721   1507     1  0.0000000  0.6508444  3
    700    696    697    709     1  180.0000771  2.0083200  2
    700    696    697    709     1  0.0000000  1.2552000  3
    700    696    703    706     1  180.0000771  2.0083200  2
    700    696    703    706     1  0.0000000  1.2552000  3
    700    712    718   1478     1  0.0000000  0.6508444  3
    703    696    697    709     1  180.0000771  2.0083200  2
    703    696    697    709     1  0.0000000  1.2552000  3
    703    696    700    712     1  180.0000771  2.0083200  2
    703    696    700    712     1  0.0000000  1.2552000  3
    703    706    715    724     1  0.0000000  0.6508444  3
    709    721   1507   1498     1  180.0000771  0.4184000  2
    709    721   1507   1498     1  0.0000000  1.6024720  3
    712    718   1478   1469     1  180.0000771  0.4184000  2
    712    718   1478   1469     1  0.0000000  1.6024720  3
    718   1478   1469   1460     1  180.0000771  0.4184000  2
    718   1478   1469   1460     1  0.0000000  1.6024720  3
    721   1507   1498   1489     1  180.0000771  0.4184000  2
    721   1507   1498   1489     1  0.0000000  1.6024720  3
    725    726    738    750     1  0.0000000  0.6508444  3
    725    729    741    747     1  0.0000000  0.6508444  3
    725    732    735    744     1  0.0000000  0.6508444  3
    726    725    729    741     1  180.0000771  2.0083200  2
    726    725    729    741     1  0.0000000  1.2552000  3
    726    725    732    735     1  180.0000771  2.0083200  2
    726    725    732    735     1  0.0000000  1.2552000  3
    726    738    750   1565     1  0.0000000  0.6508444  3
    729    725    726    738     1  180.0000771  2.0083200  2
    729    725    726    738     1  0.0000000  1.2552000  3
    729    725    732    735     1  180.0000771  2.0083200  2
    729    725    732    735     1  0.0000000  1.2552000  3
    729    741    747   1536     1  0.0000000  0.6508444  3
    732    725    726    738     1  180.0000771  2.0083200  2
    732    725    726    738     1  0.0000000  1.2552000  3
    732    725    729    741     1  180.0000771  2.0083200  2
    732    725    729    741     1  0.0000000  1.2552000  3
    732    735    744    753     1  0.0000000  0.6508444  3
    738    750   1565   1556     1  180.0000771  0.4184000  2
    738    750   1565   1556     1  0.0000000  1.6024720  3
    741    747   1536   1527     1  180.0000771  0.4184000  2
    741    747   1536   1527     1  0.0000000  1.6024720  3
    747   1536   1527   1518     1  180.0000771  0.4184000  2
    747   1536   1527   1518     1  0.0000000  1.6024720  3
    750   1565   1556   1547     1  180.0000771  0.4184000  2
    750   1565   1556   1547     1  0.0000000  1.6024720  3
    754    755    767    779     1  0.0000000  0.6508444  3
    754    758    770    776     1  0.0000000  0.6508444  3
    754    761    764    773     1  0.0000000  0.6508444  3
    755    754    758    770     1  180.0000771  2.0083200  2
    755    754    758    770     1  0.0000000  1.2552000  3
    755    754    761    764     1  180.0000771  2.0083200  2
    755    754    761    764     1  0.0000000  1.2552000  3
    755    767    779   1623     1  0.0000000  0.6508444  3
    758    754    755    767     1  180.0000771  2.0083200  2
    758    754    755    767     1  0.0000000  1.2552000  3
    758    754    761    764     1  180.0000771  2.0083200  2
    758    754    761    764     1  0.0000000  1.2552000  3
    758    770    776   1594     1  0.0000000  0.6508444  3
    761    754    755    767     1  180.0000771  2.0083200  2
    761    754    755    767     1  0.0000000  1.2552000  3
    761    754    758    770     1  180.0000771  2.0083200  2
    761    754    758    770     1  0.0000000  1.2552000  3
    761    764    773    782     1  0.0000000  0.6508444  3
    767    779   1623   1614     1  180.0000771  0.4184000  2
    767    779   1623   1614     1  0.0000000  1.6024720  3
    770    776   1594   1585     1  180.0000771  0.4184000  2
    770    776   1594   1585     1  0.0000000  1.6024720  3
    776   1594   1585   1576     1  180.0000771  0.4184000  2
    776   1594   1585   1576     1  0.0000000  1.6024720  3
    779   1623   1614   1605     1  180.0000771  0.4184000  2
    779   1623   1614   1605     1  0.0000000  1.6024720  3
    783    784    796    808     1  0.0000000  0.6508444  3
    783    787    799    805     1  0.0000000  0.6508444  3
    783    790    793    802     1  0.0000000  0.6508444  3
    784    783    787    799     1  180.0000771  2.0083200  2
    784    783    787    799     1  0.0000000  1.2552000  3
    784    783    790    793     1  180.0000771  2.0083200  2
    784    783    790    793     1  0.0000000  1.2552000  3
    784    796    808   1681     1  0.0000000  0.6508444  3
    787    783    784    796     1  180.0000771  2.0083200  2
    787    783    784    796     1  0.0000000  1.2552000  3
    787    783    790    793     1  180.0000771  2.0083200  2
    787    783    790    793     1  0.0000000  1.2552000  3
    787    799    805   1652     1  0.0000000  0.6508444  3
    790    783    784    796     1  180.0000771  2.0083200  2
    790    783    784    796     1  0.0000000  1.2552000  3
    790    783    787    799     1  180.0000771  2.0083200  2
    790    783    787    799     1  0.0000000  1.2552000  3
    790    793    802    811     1  0.0000000  0.6508444  3
    796    808   1681   1672     1  180.0000771  0.4184000  2
    796    808   1681   1672     1  0.0000000  1.6024720  3
    799    805   1652   1643     1  180.0000771  0.4184000  2
    799    805   1652   1643     1  0.0000000  1.6024720  3
    805   1652   1643   1634     1  180.0000771  0.4184000  2
    805   1652   1643   1634     1  0.0000000  1.6024720  3
    808   1681   1672   1663     1  180.0000771  0.4184000  2
    808   1681   1672   1663     1  0.0000000  1.6024720  3
    812    813    825    837     1  0.0000000  0.6508444  3
    812    816    828    834     1  0.0000000  0.6508444  3
    812    819    822    831     1  0.0000000  0.6508444  3
    813    812    816    828     1  180.0000771  2.0083200  2
    813    812    816    828     1  0.0000000  1.2552000  3
    813    812    819    822     1  180.0000771  2.0083200  2
    813    812    819    822     1  0.0000000  1.2552000  3
    813    825    837   1739     1  0.0000000  0.6508444  3
    816    812    813    825     1  180.0000771  2.0083200  2
    816    812    813    825     1  0.0000000  1.2552000  3
    816    812    819    822     1  180.0000771  2.0083200  2
    816    812    819    822     1  0.0000000  1.2552000  3
    816    828    834   1710     1  0.0000000  0.6508444  3
    819    812    813    825     1  180.0000771  2.0083200  2
    819    812    813    825     1  0.0000000  1.2552000  3
    819    812    816    828     1  180.0000771  2.0083200  2
    819    812    816    828     1  0.0000000  1.2552000  3
    819    822    831    840     1  0.0000000  0.6508444  3
    825    837   1739   1730     1  180.0000771  0.4184000  2
    825    837   1739   1730     1  0.0000000  1.6024720  3
    828    834   1710   1701     1  180.0000771  0.4184000  2
    828    834   1710   1701     1  0.0000000  1.6024720  3
    834   1710   1701   1692     1  180.0000771  0.4184000  2
    834   1710   1701   1692     1  0.0000000  1.6024720  3
    837   1739   1730   1721     1  180.0000771  0.4184000  2
    837   1739   1730   1721     1  0.0000000  1.6024720  3
    841    842    854    866     1  0.0000000  0.6508444  3
    841    845    857    863     1  0.0000000  0.6508444  3
    841    848    851    860     1  0.0000000  0.6508444  3
    842    841    845    857     1  180.0000771  2.0083200  2
    842    841    845    857     1  0.0000000  1.2552000  3
    842    841    848    851     1  180.0000771  2.0083200  2
    842    841    848    851     1  0.0000000  1.2552000  3
    842    854    866   1797     1  0.0000000  0.6508444  3
    845    841    842    854     1  180.0000771  2.0083200  2
    845    841    842    854     1  0.0000000  1.2552000  3
    845    841    848    851     1  180.0000771  2.0083200  2
    845    841    848    851     1  0.0000000  1.2552000  3
    845    857    863   1768     1  0.0000000  0.6508444  3
    848    841    842    854     1  180.0000771  2.0083200  2
    848    841    842    854     1  0.0000000  1.2552000  3
    848    841    845    857     1  180.0000771  2.0083200  2
    848    841    845    857     1  0.0000000  1.2552000  3
    848    851    860    869     1  0.0000000  0.6508444  3
    854    866   1797   1788     1  180.0000771  0.4184000  2
    854    866   1797   1788     1  0.0000000  1.6024720  3
    857    863   1768   1759     1  180.0000771  0.4184000  2
    857    863   1768   1759     1  0.0000000  1.6024720  3
    863   1768   1759   1750     1  180.0000771  0.4184000  2
    863   1768   1759   1750     1  0.0000000  1.6024720  3
    866   1797   1788   1779     1  180.0000771  0.4184000  2
    866   1797   1788   1779     1  0.0000000  1.6024720  3
    870    871    883    895     1  0.0000000  0.6508444  3
    870    874    886    892     1  0.0000000  0.6508444  3
    870    877    880    889     1  0.0000000  0.6508444  3
    871    870    874    886     1  180.0000771  2.0083200  2
    871    870    874    886     1  0.0000000  1.2552000  3
    871    870    877    880     1  180.0000771  2.0083200  2
    871    870    877    880     1  0.0000000  1.2552000  3
    871    883    895   1855     1  0.0000000  0.6508444  3
    874    870    871    883     1  180.0000771  2.0083200  2
    874    870    871    883     1  0.0000000  1.2552000  3
    874    870    877    880     1  180.0000771  2.0083200  2
    874    870    877    880     1  0.0000000  1.2552000  3
    874    886    892   1826     1  0.0000000  0.6508444  3
    877    870    871    883     1  180.0000771  2.0083200  2
    877    870    871    883     1  0.0000000  1.2552000  3
    877    870    874    886     1  180.0000771  2.0083200  2
    877    870    874    886     1  0.0000000  1.2552000  3
    877    880    889    898     1  0.0000000  0.6508444  3
    883    895   1855   1846     1  180.0000771  0.4184000  2
    883    895   1855   1846     1  0.0000000  1.6024720  3
    886    892   1826   1817     1  180.0000771  0.4184000  2
    886    892   1826   1817     1  0.0000000  1.6024720  3
    892   1826   1817   1808     1  180.0000771  0.4184000  2
    892   1826   1817   1808     1  0.0000000  1.6024720  3
    895   1855   1846   1837     1  180.0000771  0.4184000  2
    895   1855   1846   1837     1  0.0000000  1.6024720  3
    899    900    912    924     1  0.0000000  0.6508444  3
    899    903    915    921     1  0.0000000  0.6508444  3
    899    906    909    918     1  0.0000000  0.6508444  3
    900    899    903    915     1  180.0000771  2.0083200  2
    900    899    903    915     1  0.0000000  1.2552000  3
    900    899    906    909     1  180.0000771  2.0083200  2
    900    899    906    909     1  0.0000000  1.2552000  3
    900    912    924   1913     1  0.0000000  0.6508444  3
    903    899    900    912     1  180.0000771  2.0083200  2
    903    899    900    912     1  0.0000000  1.2552000  3
    903    899    906    909     1  180.0000771  2.0083200  2
    903    899    906    909     1  0.0000000  1.2552000  3
    903    915    921   1884     1  0.0000000  0.6508444  3
    906    899    900    912     1  180.0000771  2.0083200  2
    906    899    900    912     1  0.0000000  1.2552000  3
    906    899    903    915     1  180.0000771  2.0083200  2
    906    899    903    915     1  0.0000000  1.2552000  3
    906    909    918    927     1  0.0000000  0.6508444  3
    912    924   1913   1904     1  180.0000771  0.4184000  2
    912    924   1913   1904     1  0.0000000  1.6024720  3
    915    921   1884   1875     1  180.0000771  0.4184000  2
    915    921   1884   1875     1  0.0000000  1.6024720  3
    921   1884   1875   1866     1  180.0000771  0.4184000  2
    921   1884   1875   1866     1  0.0000000  1.6024720  3
    924   1913   1904   1895     1  180.0000771  0.4184000  2
    924   1913   1904   1895     1  0.0000000  1.6024720  3
    928    929    941    953     1  0.0000000  0.6508444  3
    928    932    944    950     1  0.0000000  0.6508444  3
    928    935    938    947     1  0.0000000  0.6508444  3
    929    928    932    944     1  180.0000771  2.0083200  2
    929    928    932    944     1  0.0000000  1.2552000  3
    929    928    935    938     1  180.0000771  2.0083200  2
    929    928    935    938     1  0.0000000  1.2552000  3
    929    941    953   1971     1  0.0000000  0.6508444  3
    932    928    929    941     1  180.0000771  2.0083200  2
    932    928    929    941     1  0.0000000  1.2552000  3
    932    928    935    938     1  180.0000771  2.0083200  2
    932    928    935    938     1  0.0000000  1.2552000  3
    932    944    950   1942     1  0.0000000  0.6508444  3
    935    928    929    941     1  180.0000771  2.0083200  2
    935    928    929    941     1  0.0000000  1.2552000  3
    935    928    932    944     1  180.0000771  2.0083200  2
    935    928    932    944     1  0.0000000  1.2552000  3
    935    938    947    956     1  0.0000000  0.6508444  3
    941    953   1971   1962     1  180.0000771  0.4184000  2
    941    953   1971   1962     1  0.0000000  1.6024720  3
    944    950   1942   1933     1  180.0000771  0.4184000  2
    944    950   1942   1933     1  0.0000000  1.6024720  3
    950   1942   1933   1924     1  180.0000771  0.4184000  2
    950   1942   1933   1924     1  0.0000000  1.6024720  3
    953   1971   1962   1953     1  180.0000771  0.4184000  2
    953   1971   1962   1953     1  0.0000000  1.6024720  3
    957    958    970    982     1  0.0000000  0.6508444  3
    957    961    973    979     1  0.0000000  0.6508444  3
    957    964    967    976     1  0.0000000  0.6508444  3
    958    957    961    973     1  180.0000771  2.0083200  2
    958    957    961    973     1  0.0000000  1.2552000  3
    958    957    964    967     1  180.0000771  2.0083200  2
    958    957    964    967     1  0.0000000  1.2552000  3
    958    970    982   2029     1  0.0000000  0.6508444  3
    961    957    958    970     1  180.0000771  2.0083200  2
    961    957    958    970     1  0.0000000  1.2552000  3
    961    957    964    967     1  180.0000771  2.0083200  2
    961    957    964    967     1  0.0000000  1.2552000  3
    961    973    979   2000     1  0.0000000  0.6508444  3
    964    957    958    970     1  180.0000771  2.0083200  2
    964    957    958    970     1  0.0000000  1.2552000  3
    964    957    961    973     1  180.0000771  2.0083200  2
    964    957    961    973     1  0.0000000  1.2552000  3
    964    967    976    985     1  0.0000000  0.6508444  3
    970    982   2029   2020     1  180.0000771  0.4184000  2
    970    982   2029   2020     1  0.0000000  1.6024720  3
    973    979   2000   1991     1  180.0000771  0.4184000  2
    973    979   2000   1991     1  0.0000000  1.6024720  3
    979   2000   1991   1982     1  180.0000771  0.4184000  2
    979   2000   1991   1982     1  0.0000000  1.6024720  3
    982   2029   2020   2011     1  180.0000771  0.4184000  2
    982   2029   2020   2011     1  0.0000000  1.6024720  3
    986    987    999   1011     1  0.0000000  0.6508444  3
    986    990   1002   1008     1  0.0000000  0.6508444  3
    986    993    996   1005     1  0.0000000  0.6508444  3
    987    986    990   1002     1  180.0000771  2.0083200  2
    987    986    990   1002     1  0.0000000  1.2552000  3
    987    986    993    996     1  180.0000771  2.0083200  2
    987    986    993    996     1  0.0000000  1.2552000  3
    987    999   1011   2087     1  0.0000000  0.6508444  3
    990    986    987    999     1  180.0000771  2.0083200  2
    990    986    987    999     1  0.0000000  1.2552000  3
    990    986    993    996     1  180.0000771  2.0083200  2
    990    986    993    996     1  0.0000000  1.2552000  3
    990   1002   1008   2058     1  0.0000000  0.6508444  3
    993    986    987    999     1  180.0000771  2.0083200  2
    993    986    987    999     1  0.0000000  1.2552000  3
    993    986    990   1002     1  180.0000771  2.0083200  2
    993    986    990   1002     1  0.0000000  1.2552000  3
    993    996   1005   1014     1  0.0000000  0.6508444  3
    999   1011   2087   2078     1  180.0000771  0.4184000  2
    999   1011   2087   2078     1  0.0000000  1.6024720  3
   1002   1008   2058   2049     1  180.0000771  0.4184000  2
   1002   1008   2058   2049     1  0.0000000  1.6024720  3
   1008   2058   2049   2040     1  180.0000771  0.4184000  2
   1008   2058   2049   2040     1  0.0000000  1.6024720  3
   1011   2087   2078   2069     1  180.0000771  0.4184000  2
   1011   2087   2078   2069     1  0.0000000  1.6024720  3
   1015   1016   1028   1040     1  0.0000000  0.6508444  3
   1015   1019   1031   1037     1  0.0000000  0.6508444  3
   1015   1022   1025   1034     1  0.0000000  0.6508444  3
   1016   1015   1019   1031     1  180.0000771  2.0083200  2
   1016   1015   1019   1031     1  0.0000000  1.2552000  3
   1016   1015   1022   1025     1  180.0000771  2.0083200  2
   1016   1015   1022   1025     1  0.0000000  1.2552000  3
   1016   1028   1040   2145     1  0.0000000  0.6508444  3
   1019   1015   1016   1028     1  180.0000771  2.0083200  2
   1019   1015   1016   1028     1  0.0000000  1.2552000  3
   1019   1015   1022   1025     1  180.0000771  2.0083200  2
   1019   1015   1022   1025     1  0.0000000  1.2552000  3
   1019   1031   1037   2116     1  0.0000000  0.6508444  3
   1022   1015   1016   1028     1  180.0000771  2.0083200  2
   1022   1015   1016   1028     1  0.0000000  1.2552000  3
   1022   1015   1019   1031     1  180.0000771  2.0083200  2
   1022   1015   1019   1031     1  0.0000000  1.2552000  3
   1022   1025   1034   1043     1  0.0000000  0.6508444  3
   1028   1040   2145   2136     1  180.0000771  0.4184000  2
   1028   1040   2145   2136     1  0.0000000  1.6024720  3
   1031   1037   2116   2107     1  180.0000771  0.4184000  2
   1031   1037   2116   2107     1  0.0000000  1.6024720  3
   1037   2116   2107   2098     1  180.0000771  0.4184000  2
   1037   2116   2107   2098     1  0.0000000  1.6024720  3
   1040   2145   2136   2127     1  180.0000771  0.4184000  2
   1040   2145   2136   2127     1  0.0000000  1.6024720  3
   1044   1045   1057   1069     1  0.0000000  0.6508444  3
   1044   1048   1060   1066     1  0.0000000  0.6508444  3
   1044   1051   1054   1063     1  0.0000000  0.6508444  3
   1045   1044   1048   1060     1  180.0000771  2.0083200  2
   1045   1044   1048   1060     1  0.0000000  1.2552000  3
   1045   1044   1051   1054     1  180.0000771  2.0083200  2
   1045   1044   1051   1054     1  0.0000000  1.2552000  3
   1045   1057   1069   2203     1  0.0000000  0.6508444  3
   1048   1044   1045   1057     1  180.0000771  2.0083200  2
   1048   1044   1045   1057     1  0.0000000  1.2552000  3
   1048   1044   1051   1054     1  180.0000771  2.0083200  2
   1048   1044   1051   1054     1  0.0000000  1.2552000  3
   1048   1060   1066   2174     1  0.0000000  0.6508444  3
   1051   1044   1045   1057     1  180.0000771  2.0083200  2
   1051   1044   1045   1057     1  0.0000000  1.2552000  3
   1051   1044   1048   1060     1  180.0000771  2.0083200  2
   1051   1044   1048   1060     1  0.0000000  1.2552000  3
   1051   1054   1063   1072     1  0.0000000  0.6508444  3
   1057   1069   2203   2194     1  180.0000771  0.4184000  2
   1057   1069   2203   2194     1  0.0000000  1.6024720  3
   1060   1066   2174   2165     1  180.0000771  0.4184000  2
   1060   1066   2174   2165     1  0.0000000  1.6024720  3
   1066   2174   2165   2156     1  180.0000771  0.4184000  2
   1066   2174   2165   2156     1  0.0000000  1.6024720  3
   1069   2203   2194   2185     1  180.0000771  0.4184000  2
   1069   2203   2194   2185     1  0.0000000  1.6024720  3
   1073   1074   1086   1098     1  0.0000000  0.6508444  3
   1073   1077   1089   1095     1  0.0000000  0.6508444  3
   1073   1080   1083   1092     1  0.0000000  0.6508444  3
   1074   1073   1077   1089     1  180.0000771  2.0083200  2
   1074   1073   1077   1089     1  0.0000000  1.2552000  3
   1074   1073   1080   1083     1  180.0000771  2.0083200  2
   1074   1073   1080   1083     1  0.0000000  1.2552000  3
   1074   1086   1098   2261     1  0.0000000  0.6508444  3
   1077   1073   1074   1086     1  180.0000771  2.0083200  2
   1077   1073   1074   1086     1  0.0000000  1.2552000  3
   1077   1073   1080   1083     1  180.0000771  2.0083200  2
   1077   1073   1080   1083     1  0.0000000  1.2552000  3
   1077   1089   1095   2232     1  0.0000000  0.6508444  3
   1080   1073   1074   1086     1  180.0000771  2.0083200  2
   1080   1073   1074   1086     1  0.0000000  1.2552000  3
   1080   1073   1077   1089     1  180.0000771  2.0083200  2
   1080   1073   1077   1089     1  0.0000000  1.2552000  3
   1080   1083   1092   1101     1  0.0000000  0.6508444  3
   1086   1098   2261   2252     1  180.0000771  0.4184000  2
   1086   1098   2261   2252     1  0.0000000  1.6024720  3
   1089   1095   2232   2223     1  180.0000771  0.4184000  2
   1089   1095   2232   2223     1  0.0000000  1.6024720  3
   1095   2232   2223   2214     1  180.0000771  0.4184000  2
   1095   2232   2223   2214     1  0.0000000  1.6024720  3
   1098   2261   2252   2243     1  180.0000771  0.4184000  2
   1098   2261   2252   2243     1  0.0000000  1.6024720  3
   1102   1103   1115   1127     1  0.0000000  0.6508444  3
   1102   1106   1118   1124     1  0.0000000  0.6508444  3
   1102   1109   1112   1121     1  0.0000000  0.6508444  3
   1103   1102   1106   1118     1  180.0000771  2.0083200  2
   1103   1102   1106   1118     1  0.0000000  1.2552000  3
   1103   1102   1109   1112     1  180.0000771  2.0083200  2
   1103   1102   1109   1112     1  0.0000000  1.2552000  3
   1103   1115   1127   2319     1  0.0000000  0.6508444  3
   1106   1102   1103   1115     1  180.0000771  2.0083200  2
   1106   1102   1103   1115     1  0.0000000  1.2552000  3
   1106   1102   1109   1112     1  180.0000771  2.0083200  2
   1106   1102   1109   1112     1  0.0000000  1.2552000  3
   1106   1118   1124   2290     1  0.0000000  0.6508444  3
   1109   1102   1103   1115     1  180.0000771  2.0083200  2
   1109   1102   1103   1115     1  0.0000000  1.2552000  3
   1109   1102   1106   1118     1  180.0000771  2.0083200  2
   1109   1102   1106   1118     1  0.0000000  1.2552000  3
   1109   1112   1121   1130     1  0.0000000  0.6508444  3
   1115   1127   2319   2310     1  180.0000771  0.4184000  2
   1115   1127   2319   2310     1  0.0000000  1.6024720  3
   1118   1124   2290   2281     1  180.0000771  0.4184000  2
   1118   1124   2290   2281     1  0.0000000  1.6024720  3
   1124   2290   2281   2272     1  180.0000771  0.4184000  2
   1124   2290   2281   2272     1  0.0000000  1.6024720  3
   1127   2319   2310   2301     1  180.0000771  0.4184000  2
   1127   2319   2310   2301     1  0.0000000  1.6024720  3
   1131   1132   1144   1156     1  0.0000000  0.6508444  3
   1131   1135   1147   1153     1  0.0000000  0.6508444  3
   1131   1138   1141   1150     1  0.0000000  0.6508444  3
   1132   1131   1135   1147     1  180.0000771  2.0083200  2
   1132   1131   1135   1147     1  0.0000000  1.2552000  3
   1132   1131   1138   1141     1  180.0000771  2.0083200  2
   1132   1131   1138   1141     1  0.0000000  1.2552000  3
   1132   1144   1156   2377     1  0.0000000  0.6508444  3
   1135   1131   1132   1144     1  180.0000771  2.0083200  2
   1135   1131   1132   1144     1  0.0000000  1.2552000  3
   1135   1131   1138   1141     1  180.0000771  2.0083200  2
   1135   1131   1138   1141     1  0.0000000  1.2552000  3
   1135   1147   1153   2348     1  0.0000000  0.6508444  3
   1138   1131   1132   1144     1  180.0000771  2.0083200  2
   1138   1131   1132   1144     1  0.0000000  1.2552000  3
   1138   1131   1135   1147     1  180.0000771  2.0083200  2
   1138   1131   1135   1147     1  0.0000000  1.2552000  3
   1138   1141   1150   1159     1  0.0000000  0.6508444  3
   1144   1156   2377   2368     1  180.0000771  0.4184000  2
   1144   1156   2377   2368     1  0.0000000  1.6024720  3
   1147   1153   2348   2339     1  180.0000771  0.4184000  2
   1147   1153   2348   2339     1  0.0000000  1.6024720  3
   1153   2348   2339   2330     1  180.0000771  0.4184000  2
   1153   2348   2339   2330     1  0.0000000  1.6024720  3
   1156   2377   2368   2359     1  180.0000771  0.4184000  2
   1156   2377   2368   2359     1  0.0000000  1.6024720  3
   1160   1161   1173   1185     1  0.0000000  0.6508444  3
   1160   1164   1176   1182     1  0.0000000  0.6508444  3
   1160   1167   1170   1179     1  0.0000000  0.6508444  3
   1161   1160   1164   1176     1  180.0000771  2.0083200  2
   1161   1160   1164   1176     1  0.0000000  1.2552000  3
   1161   1160   1167   1170     1  180.0000771  2.0083200  2
   1161   1160   1167   1170     1  0.0000000  1.2552000  3
   1161   1173   1185   2435     1  0.0000000  0.6508444  3
   1164   1160   1161   1173     1  180.0000771  2.0083200  2
   1164   1160   1161   1173     1  0.0000000  1.2552000  3
   1164   1160   1167   1170     1  180.0000771  2.0083200  2
   1164   1160   1167   1170     1  0.0000000  1.2552000  3
   1164   1176   1182   2406     1  0.0000000  0.6508444  3
   1167   1160   1161   1173     1  180.0000771  2.0083200  2
   1167   1160   1161   1173     1  0.0000000  1.2552000  3
   1167   1160   1164   1176     1  180.0000771  2.0083200  2
   1167   1160   1164   1176     1  0.0000000  1.2552000  3
   1167   1170   1179   1188     1  0.0000000  0.6508444  3
   1173   1185   2435   2426     1  180.0000771  0.4184000  2
   1173   1185   2435   2426     1  0.0000000  1.6024720  3
   1176   1182   2406   2397     1  180.0000771  0.4184000  2
   1176   1182   2406   2397     1  0.0000000  1.6024720  3
   1182   2406   2397   2388     1  180.0000771  0.4184000  2
   1182   2406   2397   2388     1  0.0000000  1.6024720  3
   1185   2435   2426   2417     1  180.0000771  0.4184000  2
   1185   2435   2426   2417     1  0.0000000  1.6024720  3
   1189   1190   1202   1214     1  0.0000000  0.6508444  3
   1189   1193   1205   1211     1  0.0000000  0.6508444  3
   1189   1196   1199   1208     1  0.0000000  0.6508444  3
   1190   1189   1193   1205     1  180.0000771  2.0083200  2
   1190   1189   1193   1205     1  0.0000000  1.2552000  3
   1190   1189   1196   1199     1  180.0000771  2.0083200  2
   1190   1189   1196   1199     1  0.0000000  1.2552000  3
   1190   1202   1214   2493     1  0.0000000  0.6508444  3
   1193   1189   1190   1202     1  180.0000771  2.0083200  2
   1193   1189   1190   1202     1  0.0000000  1.2552000  3
   1193   1189   1196   1199     1  180.0000771  2.0083200  2
   1193   1189   1196   1199     1  0.0000000  1.2552000  3
   1193   1205   1211   2464     1  0.0000000  0.6508444  3
   1196   1189   1190   1202     1  180.0000771  2.0083200  2
   1196   1189   1190   1202     1  0.0000000  1.2552000  3
   1196   1189   1193   1205     1  180.0000771  2.0083200  2
   1196   1189   1193   1205     1  0.0000000  1.2552000  3
   1196   1199   1208   1217     1  0.0000000  0.6508444  3
   1202   1214   2493   2484     1  180.0000771  0.4184000  2
   1202   1214   2493   2484     1  0.0000000  1.6024720  3
   1205   1211   2464   2455     1  180.0000771  0.4184000  2
   1205   1211   2464   2455     1  0.0000000  1.6024720  3
   1211   2464   2455   2446     1  180.0000771  0.4184000  2
   1211   2464   2455   2446     1  0.0000000  1.6024720  3
   1214   2493   2484   2475     1  180.0000771  0.4184000  2
   1214   2493   2484   2475     1  0.0000000  1.6024720  3
   1218   1219   1231   1243     1  0.0000000  0.6508444  3
   1218   1222   1234   1240     1  0.0000000  0.6508444  3
   1218   1225   1228   1237     1  0.0000000  0.6508444  3
   1219   1218   1222   1234     1  180.0000771  2.0083200  2
   1219   1218   1222   1234     1  0.0000000  1.2552000  3
   1219   1218   1225   1228     1  180.0000771  2.0083200  2
   1219   1218   1225   1228     1  0.0000000  1.2552000  3
   1219   1231   1243   2551     1  0.0000000  0.6508444  3
   1222   1218   1219   1231     1  180.0000771  2.0083200  2
   1222   1218   1219   1231     1  0.0000000  1.2552000  3
   1222   1218   1225   1228     1  180.0000771  2.0083200  2
   1222   1218   1225   1228     1  0.0000000  1.2552000  3
   1222   1234   1240   2522     1  0.0000000  0.6508444  3
   1225   1218   1219   1231     1  180.0000771  2.0083200  2
   1225   1218   1219   1231     1  0.0000000  1.2552000  3
   1225   1218   1222   1234     1  180.0000771  2.0083200  2
   1225   1218   1222   1234     1  0.0000000  1.2552000  3
   1225   1228   1237   1246     1  0.0000000  0.6508444  3
   1231   1243   2551   2542     1  180.0000771  0.4184000  2
   1231   1243   2551   2542     1  0.0000000  1.6024720  3
   1234   1240   2522   2513     1  180.0000771  0.4184000  2
   1234   1240   2522   2513     1  0.0000000  1.6024720  3
   1240   2522   2513   2504     1  180.0000771  0.4184000  2
   1240   2522   2513   2504     1  0.0000000  1.6024720  3
   1243   2551   2542   2533     1  180.0000771  0.4184000  2
   1243   2551   2542   2533     1  0.0000000  1.6024720  3
   1247   1248   1260   1272     1  0.0000000  0.6508444  3
   1247   1251   1263   1269     1  0.0000000  0.6508444  3
   1247   1254   1257   1266     1  0.0000000  0.6508444  3
   1248   1247   1251   1263     1  180.0000771  2.0083200  2
   1248   1247   1251   1263     1  0.0000000  1.2552000  3
   1248   1247   1254   1257     1  180.0000771  2.0083200  2
   1248   1247   1254   1257     1  0.0000000  1.2552000  3
   1248   1260   1272   2609     1  0.0000000  0.6508444  3
   1251   1247   1248   1260     1  180.0000771  2.0083200  2
   1251   1247   1248   1260     1  0.0000000  1.2552000  3
   1251   1247   1254   1257     1  180.0000771  2.0083200  2
   1251   1247   1254   1257     1  0.0000000  1.2552000  3
   1251   1263   1269   2580     1  0.0000000  0.6508444  3
   1254   1247   1248   1260     1  180.0000771  2.0083200  2
   1254   1247   1248   1260     1  0.0000000  1.2552000  3
   1254   1247   1251   1263     1  180.0000771  2.0083200  2
   1254   1247   1251   1263     1  0.0000000  1.2552000  3
   1254   1257   1266   1275     1  0.0000000  0.6508444  3
   1260   1272   2609   2600     1  180.0000771  0.4184000  2
   1260   1272   2609   2600     1  0.0000000  1.6024720  3
   1263   1269   2580   2571     1  180.0000771  0.4184000  2
   1263   1269   2580   2571     1  0.0000000  1.6024720  3
   1269   2580   2571   2562     1  180.0000771  0.4184000  2
   1269   2580   2571   2562     1  0.0000000  1.6024720  3
   1272   2609   2600   2591     1  180.0000771  0.4184000  2
   1272   2609   2600   2591     1  0.0000000  1.6024720  3
   1276   1277   1289   1301     1  0.0000000  0.6508444  3
   1276   1280   1292   1298     1  0.0000000  0.6508444  3
   1276   1283   1286   1295     1  0.0000000  0.6508444  3
   1277   1276   1280   1292     1  180.0000771  2.0083200  2
   1277   1276   1280   1292     1  0.0000000  1.2552000  3
   1277   1276   1283   1286     1  180.0000771  2.0083200  2
   1277   1276   1283   1286     1  0.0000000  1.2552000  3
   1277   1289   1301   2667     1  0.0000000  0.6508444  3
   1280   1276   1277   1289     1  180.0000771  2.0083200  2
   1280   1276   1277   1289     1  0.0000000  1.2552000  3
   1280   1276   1283   1286     1  180.0000771  2.0083200  2
   1280   1276   1283   1286     1  0.0000000  1.2552000  3
   1280   1292   1298   2638     1  0.0000000  0.6508444  3
   1283   1276   1277   1289     1  180.0000771  2.0083200  2
   1283   1276   1277   1289     1  0.0000000  1.2552000  3
   1283   1276   1280   1292     1  180.0000771  2.0083200  2
   1283   1276   1280   1292     1  0.0000000  1.2552000  3
   1283   1286   1295   1304     1  0.0000000  0.6508444  3
   1289   1301   2667   2658     1  180.0000771  0.4184000  2
   1289   1301   2667   2658     1  0.0000000  1.6024720  3
   1292   1298   2638   2629     1  180.0000771  0.4184000  2
   1292   1298   2638   2629     1  0.0000000  1.6024720  3
   1298   2638   2629   2620     1  180.0000771  0.4184000  2
   1298   2638   2629   2620     1  0.0000000  1.6024720  3
   1301   2667   2658   2649     1  180.0000771  0.4184000  2
   1301   2667   2658   2649     1  0.0000000  1.6024720  3
   1305   1306   1318   1330     1  0.0000000  0.6508444  3
   1305   1309   1321   1327     1  0.0000000  0.6508444  3
   1305   1312   1315   1324     1  0.0000000  0.6508444  3
   1306   1305   1309   1321     1  180.0000771  2.0083200  2
   1306   1305   1309   1321     1  0.0000000  1.2552000  3
   1306   1305   1312   1315     1  180.0000771  2.0083200  2
   1306   1305   1312   1315     1  0.0000000  1.2552000  3
   1306   1318   1330   2725     1  0.0000000  0.6508444  3
   1309   1305   1306   1318     1  180.0000771  2.0083200  2
   1309   1305   1306   1318     1  0.0000000  1.2552000  3
   1309   1305   1312   1315     1  180.0000771  2.0083200  2
   1309   1305   1312   1315     1  0.0000000  1.2552000  3
   1309   1321   1327   2696     1  0.0000000  0.6508444  3
   1312   1305   1306   1318     1  180.0000771  2.0083200  2
   1312   1305   1306   1318     1  0.0000000  1.2552000  3
   1312   1305   1309   1321     1  180.0000771  2.0083200  2
   1312   1305   1309   1321     1  0.0000000  1.2552000  3
   1312   1315   1324   1333     1  0.0000000  0.6508444  3
   1318   1330   2725   2716     1  180.0000771  0.4184000  2
   1318   1330   2725   2716     1  0.0000000  1.6024720  3
   1321   1327   2696   2687     1  180.0000771  0.4184000  2
   1321   1327   2696   2687     1  0.0000000  1.6024720  3
   1327   2696   2687   2678     1  180.0000771  0.4184000  2
   1327   2696   2687   2678     1  0.0000000  1.6024720  3
   1330   2725   2716   2707     1  180.0000771  0.4184000  2
   1330   2725   2716   2707     1  0.0000000  1.6024720  3
   1334   1335   1347   1359     1  0.0000000  0.6508444  3
   1334   1338   1350   1356     1  0.0000000  0.6508444  3
   1334   1341   1344   1353     1  0.0000000  0.6508444  3
   1335   1334   1338   1350     1  180.0000771  2.0083200  2
   1335   1334   1338   1350     1  0.0000000  1.2552000  3
   1335   1334   1341   1344     1  180.0000771  2.0083200  2
   1335   1334   1341   1344     1  0.0000000  1.2552000  3
   1335   1347   1359   2783     1  0.0000000  0.6508444  3
   1338   1334   1335   1347     1  180.0000771  2.0083200  2
   1338   1334   1335   1347     1  0.0000000  1.2552000  3
   1338   1334   1341   1344     1  180.0000771  2.0083200  2
   1338   1334   1341   1344     1  0.0000000  1.2552000  3
   1338   1350   1356   2754     1  0.0000000  0.6508444  3
   1341   1334   1335   1347     1  180.0000771  2.0083200  2
   1341   1334   1335   1347     1  0.0000000  1.2552000  3
   1341   1334   1338   1350     1  180.0000771  2.0083200  2
   1341   1334   1338   1350     1  0.0000000  1.2552000  3
   1341   1344   1353   1362     1  0.0000000  0.6508444  3
   1347   1359   2783   2774     1  180.0000771  0.4184000  2
   1347   1359   2783   2774     1  0.0000000  1.6024720  3
   1350   1356   2754   2745     1  180.0000771  0.4184000  2
   1350   1356   2754   2745     1  0.0000000  1.6024720  3
   1356   2754   2745   2736     1  180.0000771  0.4184000  2
   1356   2754   2745   2736     1  0.0000000  1.6024720  3
   1359   2783   2774   2765     1  180.0000771  0.4184000  2
   1359   2783   2774   2765     1  0.0000000  1.6024720  3
   1363   1364   1376   1388     1  0.0000000  0.6508444  3
   1363   1367   1379   1385     1  0.0000000  0.6508444  3
   1363   1370   1373   1382     1  0.0000000  0.6508444  3
   1364   1363   1367   1379     1  180.0000771  2.0083200  2
   1364   1363   1367   1379     1  0.0000000  1.2552000  3
   1364   1363   1370   1373     1  180.0000771  2.0083200  2
   1364   1363   1370   1373     1  0.0000000  1.2552000  3
   1364   1376   1388   2841     1  0.0000000  0.6508444  3
   1367   1363   1364   1376     1  180.0000771  2.0083200  2
   1367   1363   1364   1376     1  0.0000000  1.2552000  3
   1367   1363   1370   1373     1  180.0000771  2.0083200  2
   1367   1363   1370   1373     1  0.0000000  1.2552000  3
   1367   1379   1385   2812     1  0.0000000  0.6508444  3
   1370   1363   1364   1376     1  180.0000771  2.0083200  2
   1370   1363   1364   1376     1  0.0000000  1.2552000  3
   1370   1363   1367   1379     1  180.0000771  2.0083200  2
   1370   1363   1367   1379     1  0.0000000  1.2552000  3
   1370   1373   1382   1391     1  0.0000000  0.6508444  3
   1376   1388   2841   2832     1  180.0000771  0.4184000  2
   1376   1388   2841   2832     1  0.0000000  1.6024720  3
   1379   1385   2812   2803     1  180.0000771  0.4184000  2
   1379   1385   2812   2803     1  0.0000000  1.6024720  3
   1385   2812   2803   2794     1  180.0000771  0.4184000  2
   1385   2812   2803   2794     1  0.0000000  1.6024720  3
   1388   2841   2832   2823     1  180.0000771  0.4184000  2
   1388   2841   2832   2823     1  0.0000000  1.6024720  3
   1392   1393   1405   1417     1  0.0000000  0.6508444  3
   1392   1396   1408   1414     1  0.0000000  0.6508444  3
   1392   1399   1402   1411     1  0.0000000  0.6508444  3
   1393   1392   1396   1408     1  180.0000771  2.0083200  2
   1393   1392   1396   1408     1  0.0000000  1.2552000  3
   1393   1392   1399   1402     1  180.0000771  2.0083200  2
   1393   1392   1399   1402     1  0.0000000  1.2552000  3
   1393   1405   1417   2899     1  0.0000000  0.6508444  3
   1396   1392   1393   1405     1  180.0000771  2.0083200  2
   1396   1392   1393   1405     1  0.0000000  1.2552000  3
   1396   1392   1399   1402     1  180.0000771  2.0083200  2
   1396   1392   1399   1402     1  0.0000000  1.2552000  3
   1396   1408   1414   2870     1  0.0000000  0.6508444  3
   1399   1392   1393   1405     1  180.0000771  2.0083200  2
   1399   1392   1393   1405     1  0.0000000  1.2552000  3
   1399   1392   1396   1408     1  180.0000771  2.0083200  2
   1399   1392   1396   1408     1  0.0000000  1.2552000  3
   1399   1402   1411   1420     1  0.0000000  0.6508444  3
   1405   1417   2899   2890     1  180.0000771  0.4184000  2
   1405   1417   2899   2890     1  0.0000000  1.6024720  3
   1408   1414   2870   2861     1  180.0000771  0.4184000  2
   1408   1414   2870   2861     1  0.0000000  1.6024720  3
   1414   2870   2861   2852     1  180.0000771  0.4184000  2
   1414   2870   2861   2852     1  0.0000000  1.6024720  3
   1417   2899   2890   2881     1  180.0000771  0.4184000  2
   1417   2899   2890   2881     1  0.0000000  1.6024720  3
   1421   1422   1434   1446     1  0.0000000  0.6508444  3
   1421   1425   1437   1443     1  0.0000000  0.6508444  3
   1421   1428   1431   1440     1  0.0000000  0.6508444  3
   1422   1421   1425   1437     1  180.0000771  2.0083200  2
   1422   1421   1425   1437     1  0.0000000  1.2552000  3
   1422   1421   1428   1431     1  180.0000771  2.0083200  2
   1422   1421   1428   1431     1  0.0000000  1.2552000  3
   1422   1434   1446   2957     1  0.0000000  0.6508444  3
   1425   1421   1422   1434     1  180.0000771  2.0083200  2
   1425   1421   1422   1434     1  0.0000000  1.2552000  3
   1425   1421   1428   1431     1  180.0000771  2.0083200  2
   1425   1421   1428   1431     1  0.0000000  1.2552000  3
   1425   1437   1443   2928     1  0.0000000  0.6508444  3
   1428   1421   1422   1434     1  180.0000771  2.0083200  2
   1428   1421   1422   1434     1  0.0000000  1.2552000  3
   1428   1421   1425   1437     1  180.0000771  2.0083200  2
   1428   1421   1425   1437     1  0.0000000  1.2552000  3
   1428   1431   1440   1449     1  0.0000000  0.6508444  3
   1434   1446   2957   2948     1  180.0000771  0.4184000  2
   1434   1446   2957   2948     1  0.0000000  1.6024720  3
   1437   1443   2928   2919     1  180.0000771  0.4184000  2
   1437   1443   2928   2919     1  0.0000000  1.6024720  3
   1443   2928   2919   2910     1  180.0000771  0.4184000  2
   1443   2928   2919   2910     1  0.0000000  1.6024720  3
   1446   2957   2948   2939     1  180.0000771  0.4184000  2
   1446   2957   2948   2939     1  0.0000000  1.6024720  3
   1450   1451   1463   1475     1  0.0000000  0.6508444  3
   1450   1454   1466   1472     1  0.0000000  0.6508444  3
   1450   1457   1460   1469     1  0.0000000  0.6508444  3
   1451   1450   1454   1466     1  180.0000771  2.0083200  2
   1451   1450   1454   1466     1  0.0000000  1.2552000  3
   1451   1450   1457   1460     1  180.0000771  2.0083200  2
   1451   1450   1457   1460     1  0.0000000  1.2552000  3
   1451   1463   1475   3015     1  0.0000000  0.6508444  3
   1454   1450   1451   1463     1  180.0000771  2.0083200  2
   1454   1450   1451   1463     1  0.0000000  1.2552000  3
   1454   1450   1457   1460     1  180.0000771  2.0083200  2
   1454   1450   1457   1460     1  0.0000000  1.2552000  3
   1454   1466   1472   2986     1  0.0000000  0.6508444  3
   1457   1450   1451   1463     1  180.0000771  2.0083200  2
   1457   1450   1451   1463     1  0.0000000  1.2552000  3
   1457   1450   1454   1466     1  180.0000771  2.0083200  2
   1457   1450   1454   1466     1  0.0000000  1.2552000  3
   1457   1460   1469   1478     1  0.0000000  0.6508444  3
   1463   1475   3015   3006     1  180.0000771  0.4184000  2
   1463   1475   3015   3006     1  0.0000000  1.6024720  3
   1466   1472   2986   2977     1  180.0000771  0.4184000  2
   1466   1472   2986   2977     1  0.0000000  1.6024720  3
   1472   2986   2977   2968     1  180.0000771  0.4184000  2
   1472   2986   2977   2968     1  0.0000000  1.6024720  3
   1475   3015   3006   2997     1  180.0000771  0.4184000  2
   1475   3015   3006   2997     1  0.0000000  1.6024720  3
   1479   1480   1492   1504     1  0.0000000  0.6508444  3
   1479   1483   1495   1501     1  0.0000000  0.6508444  3
   1479   1486   1489   1498     1  0.0000000  0.6508444  3
   1480   1479   1483   1495     1  180.0000771  2.0083200  2
   1480   1479   1483   1495     1  0.0000000  1.2552000  3
   1480   1479   1486   1489     1  180.0000771  2.0083200  2
   1480   1479   1486   1489     1  0.0000000  1.2552000  3
   1480   1492   1504   3073     1  0.0000000  0.6508444  3
   1483   1479   1480   1492     1  180.0000771  2.0083200  2
   1483   1479   1480   1492     1  0.0000000  1.2552000  3
   1483   1479   1486   1489     1  180.0000771  2.0083200  2
   1483   1479   1486   1489     1  0.0000000  1.2552000  3
   1483   1495   1501   3044     1  0.0000000  0.6508444  3
   1486   1479   1480   1492     1  180.0000771  2.0083200  2
   1486   1479   1480   1492     1  0.0000000  1.2552000  3
   1486   1479   1483   1495     1  180.0000771  2.0083200  2
   1486   1479   1483   1495     1  0.0000000  1.2552000  3
   1486   1489   1498   1507     1  0.0000000  0.6508444  3
   1492   1504   3073   3064     1  180.0000771  0.4184000  2
   1492   1504   3073   3064     1  0.0000000  1.6024720  3
   1495   1501   3044   3035     1  180.0000771  0.4184000  2
   1495   1501   3044   3035     1  0.0000000  1.6024720  3
   1501   3044   3035   3026     1  180.0000771  0.4184000  2
   1501   3044   3035   3026     1  0.0000000  1.6024720  3
   1504   3073   3064   3055     1  180.0000771  0.4184000  2
   1504   3073   3064   3055     1  0.0000000  1.6024720  3
   1508   1509   1521   1533     1  0.0000000  0.6508444  3
   1508   1512   1524   1530     1  0.0000000  0.6508444  3
   1508   1515   1518   1527     1  0.0000000  0.6508444  3
   1509   1508   1512   1524     1  180.0000771  2.0083200  2
   1509   1508   1512   1524     1  0.0000000  1.2552000  3
   1509   1508   1515   1518     1  180.0000771  2.0083200  2
   1509   1508   1515   1518     1  0.0000000  1.2552000  3
   1509   1521   1533   3131     1  0.0000000  0.6508444  3
   1512   1508   1509   1521     1  180.0000771  2.0083200  2
   1512   1508   1509   1521     1  0.0000000  1.2552000  3
   1512   1508   1515   1518     1  180.0000771  2.0083200  2
   1512   1508   1515   1518     1  0.0000000  1.2552000  3
   1512   1524   1530   3102     1  0.0000000  0.6508444  3
   1515   1508   1509   1521     1  180.0000771  2.0083200  2
   1515   1508   1509   1521     1  0.0000000  1.2552000  3
   1515   1508   1512   1524     1  180.0000771  2.0083200  2
   1515   1508   1512   1524     1  0.0000000  1.2552000  3
   1515   1518   1527   1536     1  0.0000000  0.6508444  3
   1521   1533   3131   3122     1  180.0000771  0.4184000  2
   1521   1533   3131   3122     1  0.0000000  1.6024720  3
   1524   1530   3102   3093     1  180.0000771  0.4184000  2
   1524   1530   3102   3093     1  0.0000000  1.6024720  3
   1530   3102   3093   3084     1  180.0000771  0.4184000  2
   1530   3102   3093   3084     1  0.0000000  1.6024720  3
   1533   3131   3122   3113     1  180.0000771  0.4184000  2
   1533   3131   3122   3113     1  0.0000000  1.6024720  3
   1537   1538   1550   1562     1  0.0000000  0.6508444  3
   1537   1541   1553   1559     1  0.0000000  0.6508444  3
   1537   1544   1547   1556     1  0.0000000  0.6508444  3
   1538   1537   1541   1553     1  180.0000771  2.0083200  2
   1538   1537   1541   1553     1  0.0000000  1.2552000  3
   1538   1537   1544   1547     1  180.0000771  2.0083200  2
   1538   1537   1544   1547     1  0.0000000  1.2552000  3
   1538   1550   1562   3189     1  0.0000000  0.6508444  3
   1541   1537   1538   1550     1  180.0000771  2.0083200  2
   1541   1537   1538   1550     1  0.0000000  1.2552000  3
   1541   1537   1544   1547     1  180.0000771  2.0083200  2
   1541   1537   1544   1547     1  0.0000000  1.2552000  3
   1541   1553   1559   3160     1  0.0000000  0.6508444  3
   1544   1537   1538   1550     1  180.0000771  2.0083200  2
   1544   1537   1538   1550     1  0.0000000  1.2552000  3
   1544   1537   1541   1553     1  180.0000771  2.0083200  2
   1544   1537   1541   1553     1  0.0000000  1.2552000  3
   1544   1547   1556   1565     1  0.0000000  0.6508444  3
   1550   1562   3189   3180     1  180.0000771  0.4184000  2
   1550   1562   3189   3180     1  0.0000000  1.6024720  3
   1553   1559   3160   3151     1  180.0000771  0.4184000  2
   1553   1559   3160   3151     1  0.0000000  1.6024720  3
   1559   3160   3151   3142     1  180.0000771  0.4184000  2
   1559   3160   3151   3142     1  0.0000000  1.6024720  3
   1562   3189   3180   3171     1  180.0000771  0.4184000  2
   1562   3189   3180   3171     1  0.0000000  1.6024720  3
   1566   1567   1579   1591     1  0.0000000  0.6508444  3
   1566   1570   1582   1588     1  0.0000000  0.6508444  3
   1566   1573   1576   1585     1  0.0000000  0.6508444  3
   1567   1566   1570   1582     1  180.0000771  2.0083200  2
   1567   1566   1570   1582     1  0.0000000  1.2552000  3
   1567   1566   1573   1576     1  180.0000771  2.0083200  2
   1567   1566   1573   1576     1  0.0000000  1.2552000  3
   1567   1579   1591   3247     1  0.0000000  0.6508444  3
   1570   1566   1567   1579     1  180.0000771  2.0083200  2
   1570   1566   1567   1579     1  0.0000000  1.2552000  3
   1570   1566   1573   1576     1  180.0000771  2.0083200  2
   1570   1566   1573   1576     1  0.0000000  1.2552000  3
   1570   1582   1588   3218     1  0.0000000  0.6508444  3
   1573   1566   1567   1579     1  180.0000771  2.0083200  2
   1573   1566   1567   1579     1  0.0000000  1.2552000  3
   1573   1566   1570   1582     1  180.0000771  2.0083200  2
   1573   1566   1570   1582     1  0.0000000  1.2552000  3
   1573   1576   1585   1594     1  0.0000000  0.6508444  3
   1579   1591   3247   3238     1  180.0000771  0.4184000  2
   1579   1591   3247   3238     1  0.0000000  1.6024720  3
   1582   1588   3218   3209     1  180.0000771  0.4184000  2
   1582   1588   3218   3209     1  0.0000000  1.6024720  3
   1588   3218   3209   3200     1  180.0000771  0.4184000  2
   1588   3218   3209   3200     1  0.0000000  1.6024720  3
   1591   3247   3238   3229     1  180.0000771  0.4184000  2
   1591   3247   3238   3229     1  0.0000000  1.6024720  3
   1595   1596   1608   1620     1  0.0000000  0.6508444  3
   1595   1599   1611   1617     1  0.0000000  0.6508444  3
   1595   1602   1605   1614     1  0.0000000  0.6508444  3
   1596   1595   1599   1611     1  180.0000771  2.0083200  2
   1596   1595   1599   1611     1  0.0000000  1.2552000  3
   1596   1595   1602   1605     1  180.0000771  2.0083200  2
   1596   1595   1602   1605     1  0.0000000  1.2552000  3
   1596   1608   1620   3305     1  0.0000000  0.6508444  3
   1599   1595   1596   1608     1  180.0000771  2.0083200  2
   1599   1595   1596   1608     1  0.0000000  1.2552000  3
   1599   1595   1602   1605     1  180.0000771  2.0083200  2
   1599   1595   1602   1605     1  0.0000000  1.2552000  3
   1599   1611   1617   3276     1  0.0000000  0.6508444  3
   1602   1595   1596   1608     1  180.0000771  2.0083200  2
   1602   1595   1596   1608     1  0.0000000  1.2552000  3
   1602   1595   1599   1611     1  180.0000771  2.0083200  2
   1602   1595   1599   1611     1  0.0000000  1.2552000  3
   1602   1605   1614   1623     1  0.0000000  0.6508444  3
   1608   1620   3305   3296     1  180.0000771  0.4184000  2
   1608   1620   3305   3296     1  0.0000000  1.6024720  3
   1611   1617   3276   3267     1  180.0000771  0.4184000  2
   1611   1617   3276   3267     1  0.0000000  1.6024720  3
   1617   3276   3267   3258     1  180.0000771  0.4184000  2
   1617   3276   3267   3258     1  0.0000000  1.6024720  3
   1620   3305   3296   3287     1  180.0000771  0.4184000  2
   1620   3305   3296   3287     1  0.0000000  1.6024720  3
   1624   1625   1637   1649     1  0.0000000  0.6508444  3
   1624   1628   1640   1646     1  0.0000000  0.6508444  3
   1624   1631   1634   1643     1  0.0000000  0.6508444  3
   1625   1624   1628   1640     1  180.0000771  2.0083200  2
   1625   1624   1628   1640     1  0.0000000  1.2552000  3
   1625   1624   1631   1634     1  180.0000771  2.0083200  2
   1625   1624   1631   1634     1  0.0000000  1.2552000  3
   1625   1637   1649   3363     1  0.0000000  0.6508444  3
   1628   1624   1625   1637     1  180.0000771  2.0083200  2
   1628   1624   1625   1637     1  0.0000000  1.2552000  3
   1628   1624   1631   1634     1  180.0000771  2.0083200  2
   1628   1624   1631   1634     1  0.0000000  1.2552000  3
   1628   1640   1646   3334     1  0.0000000  0.6508444  3
   1631   1624   1625   1637     1  180.0000771  2.0083200  2
   1631   1624   1625   1637     1  0.0000000  1.2552000  3
   1631   1624   1628   1640     1  180.0000771  2.0083200  2
   1631   1624   1628   1640     1  0.0000000  1.2552000  3
   1631   1634   1643   1652     1  0.0000000  0.6508444  3
   1637   1649   3363   3354     1  180.0000771  0.4184000  2
   1637   1649   3363   3354     1  0.0000000  1.6024720  3
   1640   1646   3334   3325     1  180.0000771  0.4184000  2
   1640   1646   3334   3325     1  0.0000000  1.6024720  3
   1646   3334   3325   3316     1  180.0000771  0.4184000  2
   1646   3334   3325   3316     1  0.0000000  1.6024720  3
   1649   3363   3354   3345     1  180.0000771  0.4184000  2
   1649   3363   3354   3345     1  0.0000000  1.6024720  3
   1653   1654   1666   1678     1  0.0000000  0.6508444  3
   1653   1657   1669   1675     1  0.0000000  0.6508444  3
   1653   1660   1663   1672     1  0.0000000  0.6508444  3
   1654   1653   1657   1669     1  180.0000771  2.0083200  2
   1654   1653   1657   1669     1  0.0000000  1.2552000  3
   1654   1653   1660   1663     1  180.0000771  2.0083200  2
   1654   1653   1660   1663     1  0.0000000  1.2552000  3
   1654   1666   1678   3421     1  0.0000000  0.6508444  3
   1657   1653   1654   1666     1  180.0000771  2.0083200  2
   1657   1653   1654   1666     1  0.0000000  1.2552000  3
   1657   1653   1660   1663     1  180.0000771  2.0083200  2
   1657   1653   1660   1663     1  0.0000000  1.2552000  3
   1657   1669   1675   3392     1  0.0000000  0.6508444  3
   1660   1653   1654   1666     1  180.0000771  2.0083200  2
   1660   1653   1654   1666     1  0.0000000  1.2552000  3
   1660   1653   1657   1669     1  180.0000771  2.0083200  2
   1660   1653   1657   1669     1  0.0000000  1.2552000  3
   1660   1663   1672   1681     1  0.0000000  0.6508444  3
   1666   1678   3421   3412     1  180.0000771  0.4184000  2
   1666   1678   3421   3412     1  0.0000000  1.6024720  3
   1669   1675   3392   3383     1  180.0000771  0.4184000  2
   1669   1675   3392   3383     1  0.0000000  1.6024720  3
   1675   3392   3383   3374     1  180.0000771  0.4184000  2
   1675   3392   3383   3374     1  0.0000000  1.6024720  3
   1678   3421   3412   3403     1  180.0000771  0.4184000  2
   1678   3421   3412   3403     1  0.0000000  1.6024720  3
   1682   1683   1695   1707     1  0.0000000  0.6508444  3
   1682   1686   1698   1704     1  0.0000000  0.6508444  3
   1682   1689   1692   1701     1  0.0000000  0.6508444  3
   1683   1682   1686   1698     1  180.0000771  2.0083200  2
   1683   1682   1686   1698     1  0.0000000  1.2552000  3
   1683   1682   1689   1692     1  180.0000771  2.0083200  2
   1683   1682   1689   1692     1  0.0000000  1.2552000  3
   1683   1695   1707   3479     1  0.0000000  0.6508444  3
   1686   1682   1683   1695     1  180.0000771  2.0083200  2
   1686   1682   1683   1695     1  0.0000000  1.2552000  3
   1686   1682   1689   1692     1  180.0000771  2.0083200  2
   1686   1682   1689   1692     1  0.0000000  1.2552000  3
   1686   1698   1704   3450     1  0.0000000  0.6508444  3
   1689   1682   1683   1695     1  180.0000771  2.0083200  2
   1689   1682   1683   1695     1  0.0000000  1.2552000  3
   1689   1682   1686   1698     1  180.0000771  2.0083200  2
   1689   1682   1686   1698     1  0.0000000  1.2552000  3
   1689   1692   1701   1710     1  0.0000000  0.6508444  3
   1695   1707   3479   3470     1  180.0000771  0.4184000  2
   1695   1707   3479   3470     1  0.0000000  1.6024720  3
   1698   1704   3450   3441     1  180.0000771  0.4184000  2
   1698   1704   3450   3441     1  0.0000000  1.6024720  3
   1704   3450   3441   3432     1  180.0000771  0.4184000  2
   1704   3450   3441   3432     1  0.0000000  1.6024720  3
   1707   3479   3470   3461     1  180.0000771  0.4184000  2
   1707   3479   3470   3461     1  0.0000000  1.6024720  3
   1711   1712   1724   1736     1  0.0000000  0.6508444  3
   1711   1715   1727   1733     1  0.0000000  0.6508444  3
   1711   1718   1721   1730     1  0.0000000  0.6508444  3
   1712   1711   1715   1727     1  180.0000771  2.0083200  2
   1712   1711   1715   1727     1  0.0000000  1.2552000  3
   1712   1711   1718   1721     1  180.0000771  2.0083200  2
   1712   1711   1718   1721     1  0.0000000  1.2552000  3
   1712   1724   1736   3537     1  0.0000000  0.6508444  3
   1715   1711   1712   1724     1  180.0000771  2.0083200  2
   1715   1711   1712   1724     1  0.0000000  1.2552000  3
   1715   1711   1718   1721     1  180.0000771  2.0083200  2
   1715   1711   1718   1721     1  0.0000000  1.2552000  3
   1715   1727   1733   3508     1  0.0000000  0.6508444  3
   1718   1711   1712   1724     1  180.0000771  2.0083200  2
   1718   1711   1712   1724     1  0.0000000  1.2552000  3
   1718   1711   1715   1727     1  180.0000771  2.0083200  2
   1718   1711   1715   1727     1  0.0000000  1.2552000  3
   1718   1721   1730   1739     1  0.0000000  0.6508444  3
   1724   1736   3537   3528     1  180.0000771  0.4184000  2
   1724   1736   3537   3528     1  0.0000000  1.6024720  3
   1727   1733   3508   3499     1  180.0000771  0.4184000  2
   1727   1733   3508   3499     1  0.0000000  1.6024720  3
   1733   3508   3499   3490     1  180.0000771  0.4184000  2
   1733   3508   3499   3490     1  0.0000000  1.6024720  3
   1736   3537   3528   3519     1  180.0000771  0.4184000  2
   1736   3537   3528   3519     1  0.0000000  1.6024720  3
   1740   1741   1753   1765     1  0.0000000  0.6508444  3
   1740   1744   1756   1762     1  0.0000000  0.6508444  3
   1740   1747   1750   1759     1  0.0000000  0.6508444  3
   1741   1740   1744   1756     1  180.0000771  2.0083200  2
   1741   1740   1744   1756     1  0.0000000  1.2552000  3
   1741   1740   1747   1750     1  180.0000771  2.0083200  2
   1741   1740   1747   1750     1  0.0000000  1.2552000  3
   1741   1753   1765   3595     1  0.0000000  0.6508444  3
   1744   1740   1741   1753     1  180.0000771  2.0083200  2
   1744   1740   1741   1753     1  0.0000000  1.2552000  3
   1744   1740   1747   1750     1  180.0000771  2.0083200  2
   1744   1740   1747   1750     1  0.0000000  1.2552000  3
   1744   1756   1762   3566     1  0.0000000  0.6508444  3
   1747   1740   1741   1753     1  180.0000771  2.0083200  2
   1747   1740   1741   1753     1  0.0000000  1.2552000  3
   1747   1740   1744   1756     1  180.0000771  2.0083200  2
   1747   1740   1744   1756     1  0.0000000  1.2552000  3
   1747   1750   1759   1768     1  0.0000000  0.6508444  3
   1753   1765   3595   3586     1  180.0000771  0.4184000  2
   1753   1765   3595   3586     1  0.0000000  1.6024720  3
   1756   1762   3566   3557     1  180.0000771  0.4184000  2
   1756   1762   3566   3557     1  0.0000000  1.6024720  3
   1762   3566   3557   3548     1  180.0000771  0.4184000  2
   1762   3566   3557   3548     1  0.0000000  1.6024720  3
   1765   3595   3586   3577     1  180.0000771  0.4184000  2
   1765   3595   3586   3577     1  0.0000000  1.6024720  3
   1769   1770   1782   1794     1  0.0000000  0.6508444  3
   1769   1773   1785   1791     1  0.0000000  0.6508444  3
   1769   1776   1779   1788     1  0.0000000  0.6508444  3
   1770   1769   1773   1785     1  180.0000771  2.0083200  2
   1770   1769   1773   1785     1  0.0000000  1.2552000  3
   1770   1769   1776   1779     1  180.0000771  2.0083200  2
   1770   1769   1776   1779     1  0.0000000  1.2552000  3
   1770   1782   1794   3653     1  0.0000000  0.6508444  3
   1773   1769   1770   1782     1  180.0000771  2.0083200  2
   1773   1769   1770   1782     1  0.0000000  1.2552000  3
   1773   1769   1776   1779     1  180.0000771  2.0083200  2
   1773   1769   1776   1779     1  0.0000000  1.2552000  3
   1773   1785   1791   3624     1  0.0000000  0.6508444  3
   1776   1769   1770   1782     1  180.0000771  2.0083200  2
   1776   1769   1770   1782     1  0.0000000  1.2552000  3
   1776   1769   1773   1785     1  180.0000771  2.0083200  2
   1776   1769   1773   1785     1  0.0000000  1.2552000  3
   1776   1779   1788   1797     1  0.0000000  0.6508444  3
   1782   1794   3653   3644     1  180.0000771  0.4184000  2
   1782   1794   3653   3644     1  0.0000000  1.6024720  3
   1785   1791   3624   3615     1  180.0000771  0.4184000  2
   1785   1791   3624   3615     1  0.0000000  1.6024720  3
   1791   3624   3615   3606     1  180.0000771  0.4184000  2
   1791   3624   3615   3606     1  0.0000000  1.6024720  3
   1794   3653   3644   3635     1  180.0000771  0.4184000  2
   1794   3653   3644   3635     1  0.0000000  1.6024720  3
   1798   1799   1811   1823     1  0.0000000  0.6508444  3
   1798   1802   1814   1820     1  0.0000000  0.6508444  3
   1798   1805   1808   1817     1  0.0000000  0.6508444  3
   1799   1798   1802   1814     1  180.0000771  2.0083200  2
   1799   1798   1802   1814     1  0.0000000  1.2552000  3
   1799   1798   1805   1808     1  180.0000771  2.0083200  2
   1799   1798   1805   1808     1  0.0000000  1.2552000  3
   1799   1811   1823   3715     1  0.0000000  0.6508444  3
   1802   1798   1799   1811     1  180.0000771  2.0083200  2
   1802   1798   1799   1811     1  0.0000000  1.2552000  3
   1802   1798   1805   1808     1  180.0000771  2.0083200  2
   1802   1798   1805   1808     1  0.0000000  1.2552000  3
   1802   1814   1820   3684     1  0.0000000  0.6508444  3
   1805   1798   1799   1811     1  180.0000771  2.0083200  2
   1805   1798   1799   1811     1  0.0000000  1.2552000  3
   1805   1798   1802   1814     1  180.0000771  2.0083200  2
   1805   1798   1802   1814     1  0.0000000  1.2552000  3
   1805   1808   1817   1826     1  0.0000000  0.6508444  3
   1811   1823   3715   3685     1  180.0000771  0.4184000  2
   1811   1823   3715   3685     1  0.0000000  1.6024720  3
   1814   1820   3684   3654     1  180.0000771  0.4184000  2
   1814   1820   3684   3654     1  0.0000000  1.6024720  3
   1820   3684   3654   3657     1  180.0000771  0.4184000  2
   1820   3684   3654   3657     1  0.0000000  1.6024720  3
   1823   3715   3685   3688     1  180.0000771  0.4184000  2
   1823   3715   3685   3688     1  0.0000000  1.6024720  3
   1827   1828   1840   1852     1  0.0000000  0.6508444  3
   1827   1831   1843   1849     1  0.0000000  0.6508444  3
   1827   1834   1837   1846     1  0.0000000  0.6508444  3
   1828   1827   1831   1843     1  180.0000771  2.0083200  2
   1828   1827   1831   1843     1  0.0000000  1.2552000  3
   1828   1827   1834   1837     1  180.0000771  2.0083200  2
   1828   1827   1834   1837     1  0.0000000  1.2552000  3
   1828   1840   1852   3777     1  0.0000000  0.6508444  3
   1831   1827   1828   1840     1  180.0000771  2.0083200  2
   1831   1827   1828   1840     1  0.0000000  1.2552000  3
   1831   1827   1834   1837     1  180.0000771  2.0083200  2
   1831   1827   1834   1837     1  0.0000000  1.2552000  3
   1831   1843   1849   3746     1  0.0000000  0.6508444  3
   1834   1827   1828   1840     1  180.0000771  2.0083200  2
   1834   1827   1828   1840     1  0.0000000  1.2552000  3
   1834   1827   1831   1843     1  180.0000771  2.0083200  2
   1834   1827   1831   1843     1  0.0000000  1.2552000  3
   1834   1837   1846   1855     1  0.0000000  0.6508444  3
   1840   1852   3777   3747     1  180.0000771  0.4184000  2
   1840   1852   3777   3747     1  0.0000000  1.6024720  3
   1843   1849   3746   3716     1  180.0000771  0.4184000  2
   1843   1849   3746   3716     1  0.0000000  1.6024720  3
   1849   3746   3716   3719     1  180.0000771  0.4184000  2
   1849   3746   3716   3719     1  0.0000000  1.6024720  3
   1852   3777   3747   3750     1  180.0000771  0.4184000  2
   1852   3777   3747   3750     1  0.0000000  1.6024720  3
   1856   1857   1869   1881     1  0.0000000  0.6508444  3
   1856   1860   1872   1878     1  0.0000000  0.6508444  3
   1856   1863   1866   1875     1  0.0000000  0.6508444  3
   1857   1856   1860   1872     1  180.0000771  2.0083200  2
   1857   1856   1860   1872     1  0.0000000  1.2552000  3
   1857   1856   1863   1866     1  180.0000771  2.0083200  2
   1857   1856   1863   1866     1  0.0000000  1.2552000  3
   1857   1869   1881   3839     1  0.0000000  0.6508444  3
   1860   1856   1857   1869     1  180.0000771  2.0083200  2
   1860   1856   1857   1869     1  0.0000000  1.2552000  3
   1860   1856   1863   1866     1  180.0000771  2.0083200  2
   1860   1856   1863   1866     1  0.0000000  1.2552000  3
   1860   1872   1878   3808     1  0.0000000  0.6508444  3
   1863   1856   1857   1869     1  180.0000771  2.0083200  2
   1863   1856   1857   1869     1  0.0000000  1.2552000  3
   1863   1856   1860   1872     1  180.0000771  2.0083200  2
   1863   1856   1860   1872     1  0.0000000  1.2552000  3
   1863   1866   1875   1884     1  0.0000000  0.6508444  3
   1869   1881   3839   3809     1  180.0000771  0.4184000  2
   1869   1881   3839   3809     1  0.0000000  1.6024720  3
   1872   1878   3808   3778     1  180.0000771  0.4184000  2
   1872   1878   3808   3778     1  0.0000000  1.6024720  3
   1878   3808   3778   3781     1  180.0000771  0.4184000  2
   1878   3808   3778   3781     1  0.0000000  1.6024720  3
   1881   3839   3809   3812     1  180.0000771  0.4184000  2
   1881   3839   3809   3812     1  0.0000000  1.6024720  3
   1885   1886   1898   1910     1  0.0000000  0.6508444  3
   1885   1889   1901   1907     1  0.0000000  0.6508444  3
   1885   1892   1895   1904     1  0.0000000  0.6508444  3
   1886   1885   1889   1901     1  180.0000771  2.0083200  2
   1886   1885   1889   1901     1  0.0000000  1.2552000  3
   1886   1885   1892   1895     1  180.0000771  2.0083200  2
   1886   1885   1892   1895     1  0.0000000  1.2552000  3
   1886   1898   1910   3901     1  0.0000000  0.6508444  3
   1889   1885   1886   1898     1  180.0000771  2.0083200  2
   1889   1885   1886   1898     1  0.0000000  1.2552000  3
   1889   1885   1892   1895     1  180.0000771  2.0083200  2
   1889   1885   1892   1895     1  0.0000000  1.2552000  3
   1889   1901   1907   3870     1  0.0000000  0.6508444  3
   1892   1885   1886   1898     1  180.0000771  2.0083200  2
   1892   1885   1886   1898     1  0.0000000  1.2552000  3
   1892   1885   1889   1901     1  180.0000771  2.0083200  2
   1892   1885   1889   1901     1  0.0000000  1.2552000  3
   1892   1895   1904   1913     1  0.0000000  0.6508444  3
   1898   1910   3901   3871     1  180.0000771  0.4184000  2
   1898   1910   3901   3871     1  0.0000000  1.6024720  3
   1901   1907   3870   3840     1  180.0000771  0.4184000  2
   1901   1907   3870   3840     1  0.0000000  1.6024720  3
   1907   3870   3840   3843     1  180.0000771  0.4184000  2
   1907   3870   3840   3843     1  0.0000000  1.6024720  3
   1910   3901   3871   3874     1  180.0000771  0.4184000  2
   1910   3901   3871   3874     1  0.0000000  1.6024720  3
   1914   1915   1927   1939     1  0.0000000  0.6508444  3
   1914   1918   1930   1936     1  0.0000000  0.6508444  3
   1914   1921   1924   1933     1  0.0000000  0.6508444  3
   1915   1914   1918   1930     1  180.0000771  2.0083200  2
   1915   1914   1918   1930     1  0.0000000  1.2552000  3
   1915   1914   1921   1924     1  180.0000771  2.0083200  2
   1915   1914   1921   1924     1  0.0000000  1.2552000  3
   1915   1927   1939   3963     1  0.0000000  0.6508444  3
   1918   1914   1915   1927     1  180.0000771  2.0083200  2
   1918   1914   1915   1927     1  0.0000000  1.2552000  3
   1918   1914   1921   1924     1  180.0000771  2.0083200  2
   1918   1914   1921   1924     1  0.0000000  1.2552000  3
   1918   1930   1936   3932     1  0.0000000  0.6508444  3
   1921   1914   1915   1927     1  180.0000771  2.0083200  2
   1921   1914   1915   1927     1  0.0000000  1.2552000  3
   1921   1914   1918   1930     1  180.0000771  2.0083200  2
   1921   1914   1918   1930     1  0.0000000  1.2552000  3
   1921   1924   1933   1942     1  0.0000000  0.6508444  3
   1927   1939   3963   3933     1  180.0000771  0.4184000  2
   1927   1939   3963   3933     1  0.0000000  1.6024720  3
   1930   1936   3932   3902     1  180.0000771  0.4184000  2
   1930   1936   3932   3902     1  0.0000000  1.6024720  3
   1936   3932   3902   3905     1  180.0000771  0.4184000  2
   1936   3932   3902   3905     1  0.0000000  1.6024720  3
   1939   3963   3933   3936     1  180.0000771  0.4184000  2
   1939   3963   3933   3936     1  0.0000000  1.6024720  3
   1943   1944   1956   1968     1  0.0000000  0.6508444  3
   1943   1947   1959   1965     1  0.0000000  0.6508444  3
   1943   1950   1953   1962     1  0.0000000  0.6508444  3
   1944   1943   1947   1959     1  180.0000771  2.0083200  2
   1944   1943   1947   1959     1  0.0000000  1.2552000  3
   1944   1943   1950   1953     1  180.0000771  2.0083200  2
   1944   1943   1950   1953     1  0.0000000  1.2552000  3
   1944   1956   1968   4025     1  0.0000000  0.6508444  3
   1947   1943   1944   1956     1  180.0000771  2.0083200  2
   1947   1943   1944   1956     1  0.0000000  1.2552000  3
   1947   1943   1950   1953     1  180.0000771  2.0083200  2
   1947   1943   1950   1953     1  0.0000000  1.2552000  3
   1947   1959   1965   3994     1  0.0000000  0.6508444  3
   1950   1943   1944   1956     1  180.0000771  2.0083200  2
   1950   1943   1944   1956     1  0.0000000  1.2552000  3
   1950   1943   1947   1959     1  180.0000771  2.0083200  2
   1950   1943   1947   1959     1  0.0000000  1.2552000  3
   1950   1953   1962   1971     1  0.0000000  0.6508444  3
   1956   1968   4025   3995     1  180.0000771  0.4184000  2
   1956   1968   4025   3995     1  0.0000000  1.6024720  3
   1959   1965   3994   3964     1  180.0000771  0.4184000  2
   1959   1965   3994   3964     1  0.0000000  1.6024720  3
   1965   3994   3964   3967     1  180.0000771  0.4184000  2
   1965   3994   3964   3967     1  0.0000000  1.6024720  3
   1968   4025   3995   3998     1  180.0000771  0.4184000  2
   1968   4025   3995   3998     1  0.0000000  1.6024720  3
   1972   1973   1985   1997     1  0.0000000  0.6508444  3
   1972   1976   1988   1994     1  0.0000000  0.6508444  3
   1972   1979   1982   1991     1  0.0000000  0.6508444  3
   1973   1972   1976   1988     1  180.0000771  2.0083200  2
   1973   1972   1976   1988     1  0.0000000  1.2552000  3
   1973   1972   1979   1982     1  180.0000771  2.0083200  2
   1973   1972   1979   1982     1  0.0000000  1.2552000  3
   1973   1985   1997   4087     1  0.0000000  0.6508444  3
   1976   1972   1973   1985     1  180.0000771  2.0083200  2
   1976   1972   1973   1985     1  0.0000000  1.2552000  3
   1976   1972   1979   1982     1  180.0000771  2.0083200  2
   1976   1972   1979   1982     1  0.0000000  1.2552000  3
   1976   1988   1994   4056     1  0.0000000  0.6508444  3
   1979   1972   1973   1985     1  180.0000771  2.0083200  2
   1979   1972   1973   1985     1  0.0000000  1.2552000  3
   1979   1972   1976   1988     1  180.0000771  2.0083200  2
   1979   1972   1976   1988     1  0.0000000  1.2552000  3
   1979   1982   1991   2000     1  0.0000000  0.6508444  3
   1985   1997   4087   4057     1  180.0000771  0.4184000  2
   1985   1997   4087   4057     1  0.0000000  1.6024720  3
   1988   1994   4056   4026     1  180.0000771  0.4184000  2
   1988   1994   4056   4026     1  0.0000000  1.6024720  3
   1994   4056   4026   4029     1  180.0000771  0.4184000  2
   1994   4056   4026   4029     1  0.0000000  1.6024720  3
   1997   4087   4057   4060     1  180.0000771  0.4184000  2
   1997   4087   4057   4060     1  0.0000000  1.6024720  3
   2001   2002   2014   2026     1  0.0000000  0.6508444  3
   2001   2005   2017   2023     1  0.0000000  0.6508444  3
   2001   2008   2011   2020     1  0.0000000  0.6508444  3
   2002   2001   2005   2017     1  180.0000771  2.0083200  2
   2002   2001   2005   2017     1  0.0000000  1.2552000  3
   2002   2001   2008   2011     1  180.0000771  2.0083200  2
   2002   2001   2008   2011     1  0.0000000  1.2552000  3
   2002   2014   2026   4149     1  0.0000000  0.6508444  3
   2005   2001   2002   2014     1  180.0000771  2.0083200  2
   2005   2001   2002   2014     1  0.0000000  1.2552000  3
   2005   2001   2008   2011     1  180.0000771  2.0083200  2
   2005   2001   2008   2011     1  0.0000000  1.2552000  3
   2005   2017   2023   4118     1  0.0000000  0.6508444  3
   2008   2001   2002   2014     1  180.0000771  2.0083200  2
   2008   2001   2002   2014     1  0.0000000  1.2552000  3
   2008   2001   2005   2017     1  180.0000771  2.0083200  2
   2008   2001   2005   2017     1  0.0000000  1.2552000  3
   2008   2011   2020   2029     1  0.0000000  0.6508444  3
   2014   2026   4149   4119     1  180.0000771  0.4184000  2
   2014   2026   4149   4119     1  0.0000000  1.6024720  3
   2017   2023   4118   4088     1  180.0000771  0.4184000  2
   2017   2023   4118   4088     1  0.0000000  1.6024720  3
   2023   4118   4088   4091     1  180.0000771  0.4184000  2
   2023   4118   4088   4091     1  0.0000000  1.6024720  3
   2026   4149   4119   4122     1  180.0000771  0.4184000  2
   2026   4149   4119   4122     1  0.0000000  1.6024720  3
   2030   2031   2043   2055     1  0.0000000  0.6508444  3
   2030   2034   2046   2052     1  0.0000000  0.6508444  3
   2030   2037   2040   2049     1  0.0000000  0.6508444  3
   2031   2030   2034   2046     1  180.0000771  2.0083200  2
   2031   2030   2034   2046     1  0.0000000  1.2552000  3
   2031   2030   2037   2040     1  180.0000771  2.0083200  2
   2031   2030   2037   2040     1  0.0000000  1.2552000  3
   2031   2043   2055   4211     1  0.0000000  0.6508444  3
   2034   2030   2031   2043     1  180.0000771  2.0083200  2
   2034   2030   2031   2043     1  0.0000000  1.2552000  3
   2034   2030   2037   2040     1  180.0000771  2.0083200  2
   2034   2030   2037   2040     1  0.0000000  1.2552000  3
   2034   2046   2052   4180     1  0.0000000  0.6508444  3
   2037   2030   2031   2043     1  180.0000771  2.0083200  2
   2037   2030   2031   2043     1  0.0000000  1.2552000  3
   2037   2030   2034   2046     1  180.0000771  2.0083200  2
   2037   2030   2034   2046     1  0.0000000  1.2552000  3
   2037   2040   2049   2058     1  0.0000000  0.6508444  3
   2043   2055   4211   4181     1  180.0000771  0.4184000  2
   2043   2055   4211   4181     1  0.0000000  1.6024720  3
   2046   2052   4180   4150     1  180.0000771  0.4184000  2
   2046   2052   4180   4150     1  0.0000000  1.6024720  3
   2052   4180   4150   4153     1  180.0000771  0.4184000  2
   2052   4180   4150   4153     1  0.0000000  1.6024720  3
   2055   4211   4181   4184     1  180.0000771  0.4184000  2
   2055   4211   4181   4184     1  0.0000000  1.6024720  3
   2059   2060   2072   2084     1  0.0000000  0.6508444  3
   2059   2063   2075   2081     1  0.0000000  0.6508444  3
   2059   2066   2069   2078     1  0.0000000  0.6508444  3
   2060   2059   2063   2075     1  180.0000771  2.0083200  2
   2060   2059   2063   2075     1  0.0000000  1.2552000  3
   2060   2059   2066   2069     1  180.0000771  2.0083200  2
   2060   2059   2066   2069     1  0.0000000  1.2552000  3
   2060   2072   2084   4273     1  0.0000000  0.6508444  3
   2063   2059   2060   2072     1  180.0000771  2.0083200  2
   2063   2059   2060   2072     1  0.0000000  1.2552000  3
   2063   2059   2066   2069     1  180.0000771  2.0083200  2
   2063   2059   2066   2069     1  0.0000000  1.2552000  3
   2063   2075   2081   4242     1  0.0000000  0.6508444  3
   2066   2059   2060   2072     1  180.0000771  2.0083200  2
   2066   2059   2060   2072     1  0.0000000  1.2552000  3
   2066   2059   2063   2075     1  180.0000771  2.0083200  2
   2066   2059   2063   2075     1  0.0000000  1.2552000  3
   2066   2069   2078   2087     1  0.0000000  0.6508444  3
   2072   2084   4273   4243     1  180.0000771  0.4184000  2
   2072   2084   4273   4243     1  0.0000000  1.6024720  3
   2075   2081   4242   4212     1  180.0000771  0.4184000  2
   2075   2081   4242   4212     1  0.0000000  1.6024720  3
   2081   4242   4212   4215     1  180.0000771  0.4184000  2
   2081   4242   4212   4215     1  0.0000000  1.6024720  3
   2084   4273   4243   4246     1  180.0000771  0.4184000  2
   2084   4273   4243   4246     1  0.0000000  1.6024720  3
   2088   2089   2101   2113     1  0.0000000  0.6508444  3
   2088   2092   2104   2110     1  0.0000000  0.6508444  3
   2088   2095   2098   2107     1  0.0000000  0.6508444  3
   2089   2088   2092   2104     1  180.0000771  2.0083200  2
   2089   2088   2092   2104     1  0.0000000  1.2552000  3
   2089   2088   2095   2098     1  180.0000771  2.0083200  2
   2089   2088   2095   2098     1  0.0000000  1.2552000  3
   2089   2101   2113   4335     1  0.0000000  0.6508444  3
   2092   2088   2089   2101     1  180.0000771  2.0083200  2
   2092   2088   2089   2101     1  0.0000000  1.2552000  3
   2092   2088   2095   2098     1  180.0000771  2.0083200  2
   2092   2088   2095   2098     1  0.0000000  1.2552000  3
   2092   2104   2110   4304     1  0.0000000  0.6508444  3
   2095   2088   2089   2101     1  180.0000771  2.0083200  2
   2095   2088   2089   2101     1  0.0000000  1.2552000  3
   2095   2088   2092   2104     1  180.0000771  2.0083200  2
   2095   2088   2092   2104     1  0.0000000  1.2552000  3
   2095   2098   2107   2116     1  0.0000000  0.6508444  3
   2101   2113   4335   4305     1  180.0000771  0.4184000  2
   2101   2113   4335   4305     1  0.0000000  1.6024720  3
   2104   2110   4304   4274     1  180.0000771  0.4184000  2
   2104   2110   4304   4274     1  0.0000000  1.6024720  3
   2110   4304   4274   4277     1  180.0000771  0.4184000  2
   2110   4304   4274   4277     1  0.0000000  1.6024720  3
   2113   4335   4305   4308     1  180.0000771  0.4184000  2
   2113   4335   4305   4308     1  0.0000000  1.6024720  3
   2117   2118   2130   2142     1  0.0000000  0.6508444  3
   2117   2121   2133   2139     1  0.0000000  0.6508444  3
   2117   2124   2127   2136     1  0.0000000  0.6508444  3
   2118   2117   2121   2133     1  180.0000771  2.0083200  2
   2118   2117   2121   2133     1  0.0000000  1.2552000  3
   2118   2117   2124   2127     1  180.0000771  2.0083200  2
   2118   2117   2124   2127     1  0.0000000  1.2552000  3
   2118   2130   2142   4397     1  0.0000000  0.6508444  3
   2121   2117   2118   2130     1  180.0000771  2.0083200  2
   2121   2117   2118   2130     1  0.0000000  1.2552000  3
   2121   2117   2124   2127     1  180.0000771  2.0083200  2
   2121   2117   2124   2127     1  0.0000000  1.2552000  3
   2121   2133   2139   4366     1  0.0000000  0.6508444  3
   2124   2117   2118   2130     1  180.0000771  2.0083200  2
   2124   2117   2118   2130     1  0.0000000  1.2552000  3
   2124   2117   2121   2133     1  180.0000771  2.0083200  2
   2124   2117   2121   2133     1  0.0000000  1.2552000  3
   2124   2127   2136   2145     1  0.0000000  0.6508444  3
   2130   2142   4397   4367     1  180.0000771  0.4184000  2
   2130   2142   4397   4367     1  0.0000000  1.6024720  3
   2133   2139   4366   4336     1  180.0000771  0.4184000  2
   2133   2139   4366   4336     1  0.0000000  1.6024720  3
   2139   4366   4336   4339     1  180.0000771  0.4184000  2
   2139   4366   4336   4339     1  0.0000000  1.6024720  3
   2142   4397   4367   4370     1  180.0000771  0.4184000  2
   2142   4397   4367   4370     1  0.0000000  1.6024720  3
   2146   2147   2159   2171     1  0.0000000  0.6508444  3
   2146   2150   2162   2168     1  0.0000000  0.6508444  3
   2146   2153   2156   2165     1  0.0000000  0.6508444  3
   2147   2146   2150   2162     1  180.0000771  2.0083200  2
   2147   2146   2150   2162     1  0.0000000  1.2552000  3
   2147   2146   2153   2156     1  180.0000771  2.0083200  2
   2147   2146   2153   2156     1  0.0000000  1.2552000  3
   2147   2159   2171   4459     1  0.0000000  0.6508444  3
   2150   2146   2147   2159     1  180.0000771  2.0083200  2
   2150   2146   2147   2159     1  0.0000000  1.2552000  3
   2150   2146   2153   2156     1  180.0000771  2.0083200  2
   2150   2146   2153   2156     1  0.0000000  1.2552000  3
   2150   2162   2168   4428     1  0.0000000  0.6508444  3
   2153   2146   2147   2159     1  180.0000771  2.0083200  2
   2153   2146   2147   2159     1  0.0000000  1.2552000  3
   2153   2146   2150   2162     1  180.0000771  2.0083200  2
   2153   2146   2150   2162     1  0.0000000  1.2552000  3
   2153   2156   2165   2174     1  0.0000000  0.6508444  3
   2159   2171   4459   4429     1  180.0000771  0.4184000  2
   2159   2171   4459   4429     1  0.0000000  1.6024720  3
   2162   2168   4428   4398     1  180.0000771  0.4184000  2
   2162   2168   4428   4398     1  0.0000000  1.6024720  3
   2168   4428   4398   4401     1  180.0000771  0.4184000  2
   2168   4428   4398   4401     1  0.0000000  1.6024720  3
   2171   4459   4429   4432     1  180.0000771  0.4184000  2
   2171   4459   4429   4432     1  0.0000000  1.6024720  3
   2175   2176   2188   2200     1  0.0000000  0.6508444  3
   2175   2179   2191   2197     1  0.0000000  0.6508444  3
   2175   2182   2185   2194     1  0.0000000  0.6508444  3
   2176   2175   2179   2191     1  180.0000771  2.0083200  2
   2176   2175   2179   2191     1  0.0000000  1.2552000  3
   2176   2175   2182   2185     1  180.0000771  2.0083200  2
   2176   2175   2182   2185     1  0.0000000  1.2552000  3
   2176   2188   2200   4521     1  0.0000000  0.6508444  3
   2179   2175   2176   2188     1  180.0000771  2.0083200  2
   2179   2175   2176   2188     1  0.0000000  1.2552000  3
   2179   2175   2182   2185     1  180.0000771  2.0083200  2
   2179   2175   2182   2185     1  0.0000000  1.2552000  3
   2179   2191   2197   4490     1  0.0000000  0.6508444  3
   2182   2175   2176   2188     1  180.0000771  2.0083200  2
   2182   2175   2176   2188     1  0.0000000  1.2552000  3
   2182   2175   2179   2191     1  180.0000771  2.0083200  2
   2182   2175   2179   2191     1  0.0000000  1.2552000  3
   2182   2185   2194   2203     1  0.0000000  0.6508444  3
   2188   2200   4521   4491     1  180.0000771  0.4184000  2
   2188   2200   4521   4491     1  0.0000000  1.6024720  3
   2191   2197   4490   4460     1  180.0000771  0.4184000  2
   2191   2197   4490   4460     1  0.0000000  1.6024720  3
   2197   4490   4460   4463     1  180.0000771  0.4184000  2
   2197   4490   4460   4463     1  0.0000000  1.6024720  3
   2200   4521   4491   4494     1  180.0000771  0.4184000  2
   2200   4521   4491   4494     1  0.0000000  1.6024720  3
   2204   2205   2217   2229     1  0.0000000  0.6508444  3
   2204   2208   2220   2226     1  0.0000000  0.6508444  3
   2204   2211   2214   2223     1  0.0000000  0.6508444  3
   2205   2204   2208   2220     1  180.0000771  2.0083200  2
   2205   2204   2208   2220     1  0.0000000  1.2552000  3
   2205   2204   2211   2214     1  180.0000771  2.0083200  2
   2205   2204   2211   2214     1  0.0000000  1.2552000  3
   2205   2217   2229   4583     1  0.0000000  0.6508444  3
   2208   2204   2205   2217     1  180.0000771  2.0083200  2
   2208   2204   2205   2217     1  0.0000000  1.2552000  3
   2208   2204   2211   2214     1  180.0000771  2.0083200  2
   2208   2204   2211   2214     1  0.0000000  1.2552000  3
   2208   2220   2226   4552     1  0.0000000  0.6508444  3
   2211   2204   2205   2217     1  180.0000771  2.0083200  2
   2211   2204   2205   2217     1  0.0000000  1.2552000  3
   2211   2204   2208   2220     1  180.0000771  2.0083200  2
   2211   2204   2208   2220     1  0.0000000  1.2552000  3
   2211   2214   2223   2232     1  0.0000000  0.6508444  3
   2217   2229   4583   4553     1  180.0000771  0.4184000  2
   2217   2229   4583   4553     1  0.0000000  1.6024720  3
   2220   2226   4552   4522     1  180.0000771  0.4184000  2
   2220   2226   4552   4522     1  0.0000000  1.6024720  3
   2226   4552   4522   4525     1  180.0000771  0.4184000  2
   2226   4552   4522   4525     1  0.0000000  1.6024720  3
   2229   4583   4553   4556     1  180.0000771  0.4184000  2
   2229   4583   4553   4556     1  0.0000000  1.6024720  3
   2233   2234   2246   2258     1  0.0000000  0.6508444  3
   2233   2237   2249   2255     1  0.0000000  0.6508444  3
   2233   2240   2243   2252     1  0.0000000  0.6508444  3
   2234   2233   2237   2249     1  180.0000771  2.0083200  2
   2234   2233   2237   2249     1  0.0000000  1.2552000  3
   2234   2233   2240   2243     1  180.0000771  2.0083200  2
   2234   2233   2240   2243     1  0.0000000  1.2552000  3
   2234   2246   2258   4645     1  0.0000000  0.6508444  3
   2237   2233   2234   2246     1  180.0000771  2.0083200  2
   2237   2233   2234   2246     1  0.0000000  1.2552000  3
   2237   2233   2240   2243     1  180.0000771  2.0083200  2
   2237   2233   2240   2243     1  0.0000000  1.2552000  3
   2237   2249   2255   4614     1  0.0000000  0.6508444  3
   2240   2233   2234   2246     1  180.0000771  2.0083200  2
   2240   2233   2234   2246     1  0.0000000  1.2552000  3
   2240   2233   2237   2249     1  180.0000771  2.0083200  2
   2240   2233   2237   2249     1  0.0000000  1.2552000  3
   2240   2243   2252   2261     1  0.0000000  0.6508444  3
   2246   2258   4645   4615     1  180.0000771  0.4184000  2
   2246   2258   4645   4615     1  0.0000000  1.6024720  3
   2249   2255   4614   4584     1  180.0000771  0.4184000  2
   2249   2255   4614   4584     1  0.0000000  1.6024720  3
   2255   4614   4584   4587     1  180.0000771  0.4184000  2
   2255   4614   4584   4587     1  0.0000000  1.6024720  3
   2258   4645   4615   4618     1  180.0000771  0.4184000  2
   2258   4645   4615   4618     1  0.0000000  1.6024720  3
   2262   2263   2275   2287     1  0.0000000  0.6508444  3
   2262   2266   2278   2284     1  0.0000000  0.6508444  3
   2262   2269   2272   2281     1  0.0000000  0.6508444  3
   2263   2262   2266   2278     1  180.0000771  2.0083200  2
   2263   2262   2266   2278     1  0.0000000  1.2552000  3
   2263   2262   2269   2272     1  180.0000771  2.0083200  2
   2263   2262   2269   2272     1  0.0000000  1.2552000  3
   2263   2275   2287   4707     1  0.0000000  0.6508444  3
   2266   2262   2263   2275     1  180.0000771  2.0083200  2
   2266   2262   2263   2275     1  0.0000000  1.2552000  3
   2266   2262   2269   2272     1  180.0000771  2.0083200  2
   2266   2262   2269   2272     1  0.0000000  1.2552000  3
   2266   2278   2284   4676     1  0.0000000  0.6508444  3
   2269   2262   2263   2275     1  180.0000771  2.0083200  2
   2269   2262   2263   2275     1  0.0000000  1.2552000  3
   2269   2262   2266   2278     1  180.0000771  2.0083200  2
   2269   2262   2266   2278     1  0.0000000  1.2552000  3
   2269   2272   2281   2290     1  0.0000000  0.6508444  3
   2275   2287   4707   4677     1  180.0000771  0.4184000  2
   2275   2287   4707   4677     1  0.0000000  1.6024720  3
   2278   2284   4676   4646     1  180.0000771  0.4184000  2
   2278   2284   4676   4646     1  0.0000000  1.6024720  3
   2284   4676   4646   4649     1  180.0000771  0.4184000  2
   2284   4676   4646   4649     1  0.0000000  1.6024720  3
   2287   4707   4677   4680     1  180.0000771  0.4184000  2
   2287   4707   4677   4680     1  0.0000000  1.6024720  3
   2291   2292   2304   2316     1  0.0000000  0.6508444  3
   2291   2295   2307   2313     1  0.0000000  0.6508444  3
   2291   2298   2301   2310     1  0.0000000  0.6508444  3
   2292   2291   2295   2307     1  180.0000771  2.0083200  2
   2292   2291   2295   2307     1  0.0000000  1.2552000  3
   2292   2291   2298   2301     1  180.0000771  2.0083200  2
   2292   2291   2298   2301     1  0.0000000  1.2552000  3
   2292   2304   2316   4769     1  0.0000000  0.6508444  3
   2295   2291   2292   2304     1  180.0000771  2.0083200  2
   2295   2291   2292   2304     1  0.0000000  1.2552000  3
   2295   2291   2298   2301     1  180.0000771  2.0083200  2
   2295   2291   2298   2301     1  0.0000000  1.2552000  3
   2295   2307   2313   4738     1  0.0000000  0.6508444  3
   2298   2291   2292   2304     1  180.0000771  2.0083200  2
   2298   2291   2292   2304     1  0.0000000  1.2552000  3
   2298   2291   2295   2307     1  180.0000771  2.0083200  2
   2298   2291   2295   2307     1  0.0000000  1.2552000  3
   2298   2301   2310   2319     1  0.0000000  0.6508444  3
   2304   2316   4769   4739     1  180.0000771  0.4184000  2
   2304   2316   4769   4739     1  0.0000000  1.6024720  3
   2307   2313   4738   4708     1  180.0000771  0.4184000  2
   2307   2313   4738   4708     1  0.0000000  1.6024720  3
   2313   4738   4708   4711     1  180.0000771  0.4184000  2
   2313   4738   4708   4711     1  0.0000000  1.6024720  3
   2316   4769   4739   4742     1  180.0000771  0.4184000  2
   2316   4769   4739   4742     1  0.0000000  1.6024720  3
   2320   2321   2333   2345     1  0.0000000  0.6508444  3
   2320   2324   2336   2342     1  0.0000000  0.6508444  3
   2320   2327   2330   2339     1  0.0000000  0.6508444  3
   2321   2320   2324   2336     1  180.0000771  2.0083200  2
   2321   2320   2324   2336     1  0.0000000  1.2552000  3
   2321   2320   2327   2330     1  180.0000771  2.0083200  2
   2321   2320   2327   2330     1  0.0000000  1.2552000  3
   2321   2333   2345   4831     1  0.0000000  0.6508444  3
   2324   2320   2321   2333     1  180.0000771  2.0083200  2
   2324   2320   2321   2333     1  0.0000000  1.2552000  3
   2324   2320   2327   2330     1  180.0000771  2.0083200  2
   2324   2320   2327   2330     1  0.0000000  1.2552000  3
   2324   2336   2342   4800     1  0.0000000  0.6508444  3
   2327   2320   2321   2333     1  180.0000771  2.0083200  2
   2327   2320   2321   2333     1  0.0000000  1.2552000  3
   2327   2320   2324   2336     1  180.0000771  2.0083200  2
   2327   2320   2324   2336     1  0.0000000  1.2552000  3
   2327   2330   2339   2348     1  0.0000000  0.6508444  3
   2333   2345   4831   4801     1  180.0000771  0.4184000  2
   2333   2345   4831   4801     1  0.0000000  1.6024720  3
   2336   2342   4800   4770     1  180.0000771  0.4184000  2
   2336   2342   4800   4770     1  0.0000000  1.6024720  3
   2342   4800   4770   4773     1  180.0000771  0.4184000  2
   2342   4800   4770   4773     1  0.0000000  1.6024720  3
   2345   4831   4801   4804     1  180.0000771  0.4184000  2
   2345   4831   4801   4804     1  0.0000000  1.6024720  3
   2349   2350   2362   2374     1  0.0000000  0.6508444  3
   2349   2353   2365   2371     1  0.0000000  0.6508444  3
   2349   2356   2359   2368     1  0.0000000  0.6508444  3
   2350   2349   2353   2365     1  180.0000771  2.0083200  2
   2350   2349   2353   2365     1  0.0000000  1.2552000  3
   2350   2349   2356   2359     1  180.0000771  2.0083200  2
   2350   2349   2356   2359     1  0.0000000  1.2552000  3
   2350   2362   2374   4893     1  0.0000000  0.6508444  3
   2353   2349   2350   2362     1  180.0000771  2.0083200  2
   2353   2349   2350   2362     1  0.0000000  1.2552000  3
   2353   2349   2356   2359     1  180.0000771  2.0083200  2
   2353   2349   2356   2359     1  0.0000000  1.2552000  3
   2353   2365   2371   4862     1  0.0000000  0.6508444  3
   2356   2349   2350   2362     1  180.0000771  2.0083200  2
   2356   2349   2350   2362     1  0.0000000  1.2552000  3
   2356   2349   2353   2365     1  180.0000771  2.0083200  2
   2356   2349   2353   2365     1  0.0000000  1.2552000  3
   2356   2359   2368   2377     1  0.0000000  0.6508444  3
   2362   2374   4893   4863     1  180.0000771  0.4184000  2
   2362   2374   4893   4863     1  0.0000000  1.6024720  3
   2365   2371   4862   4832     1  180.0000771  0.4184000  2
   2365   2371   4862   4832     1  0.0000000  1.6024720  3
   2371   4862   4832   4835     1  180.0000771  0.4184000  2
   2371   4862   4832   4835     1  0.0000000  1.6024720  3
   2374   4893   4863   4866     1  180.0000771  0.4184000  2
   2374   4893   4863   4866     1  0.0000000  1.6024720  3
   2378   2379   2391   2403     1  0.0000000  0.6508444  3
   2378   2382   2394   2400     1  0.0000000  0.6508444  3
   2378   2385   2388   2397     1  0.0000000  0.6508444  3
   2379   2378   2382   2394     1  180.0000771  2.0083200  2
   2379   2378   2382   2394     1  0.0000000  1.2552000  3
   2379   2378   2385   2388     1  180.0000771  2.0083200  2
   2379   2378   2385   2388     1  0.0000000  1.2552000  3
   2379   2391   2403   4955     1  0.0000000  0.6508444  3
   2382   2378   2379   2391     1  180.0000771  2.0083200  2
   2382   2378   2379   2391     1  0.0000000  1.2552000  3
   2382   2378   2385   2388     1  180.0000771  2.0083200  2
   2382   2378   2385   2388     1  0.0000000  1.2552000  3
   2382   2394   2400   4924     1  0.0000000  0.6508444  3
   2385   2378   2379   2391     1  180.0000771  2.0083200  2
   2385   2378   2379   2391     1  0.0000000  1.2552000  3
   2385   2378   2382   2394     1  180.0000771  2.0083200  2
   2385   2378   2382   2394     1  0.0000000  1.2552000  3
   2385   2388   2397   2406     1  0.0000000  0.6508444  3
   2391   2403   4955   4925     1  180.0000771  0.4184000  2
   2391   2403   4955   4925     1  0.0000000  1.6024720  3
   2394   2400   4924   4894     1  180.0000771  0.4184000  2
   2394   2400   4924   4894     1  0.0000000  1.6024720  3
   2400   4924   4894   4897     1  180.0000771  0.4184000  2
   2400   4924   4894   4897     1  0.0000000  1.6024720  3
   2403   4955   4925   4928     1  180.0000771  0.4184000  2
   2403   4955   4925   4928     1  0.0000000  1.6024720  3
   2407   2408   2420   2432     1  0.0000000  0.6508444  3
   2407   2411   2423   2429     1  0.0000000  0.6508444  3
   2407   2414   2417   2426     1  0.0000000  0.6508444  3
   2408   2407   2411   2423     1  180.0000771  2.0083200  2
   2408   2407   2411   2423     1  0.0000000  1.2552000  3
   2408   2407   2414   2417     1  180.0000771  2.0083200  2
   2408   2407   2414   2417     1  0.0000000  1.2552000  3
   2408   2420   2432   5017     1  0.0000000  0.6508444  3
   2411   2407   2408   2420     1  180.0000771  2.0083200  2
   2411   2407   2408   2420     1  0.0000000  1.2552000  3
   2411   2407   2414   2417     1  180.0000771  2.0083200  2
   2411   2407   2414   2417     1  0.0000000  1.2552000  3
   2411   2423   2429   4986     1  0.0000000  0.6508444  3
   2414   2407   2408   2420     1  180.0000771  2.0083200  2
   2414   2407   2408   2420     1  0.0000000  1.2552000  3
   2414   2407   2411   2423     1  180.0000771  2.0083200  2
   2414   2407   2411   2423     1  0.0000000  1.2552000  3
   2414   2417   2426   2435     1  0.0000000  0.6508444  3
   2420   2432   5017   4987     1  180.0000771  0.4184000  2
   2420   2432   5017   4987     1  0.0000000  1.6024720  3
   2423   2429   4986   4956     1  180.0000771  0.4184000  2
   2423   2429   4986   4956     1  0.0000000  1.6024720  3
   2429   4986   4956   4959     1  180.0000771  0.4184000  2
   2429   4986   4956   4959     1  0.0000000  1.6024720  3
   2432   5017   4987   4990     1  180.0000771  0.4184000  2
   2432   5017   4987   4990     1  0.0000000  1.6024720  3
   2436   2437   2449   2461     1  0.0000000  0.6508444  3
   2436   2440   2452   2458     1  0.0000000  0.6508444  3
   2436   2443   2446   2455     1  0.0000000  0.6508444  3
   2437   2436   2440   2452     1  180.0000771  2.0083200  2
   2437   2436   2440   2452     1  0.0000000  1.2552000  3
   2437   2436   2443   2446     1  180.0000771  2.0083200  2
   2437   2436   2443   2446     1  0.0000000  1.2552000  3
   2437   2449   2461   5079     1  0.0000000  0.6508444  3
   2440   2436   2437   2449     1  180.0000771  2.0083200  2
   2440   2436   2437   2449     1  0.0000000  1.2552000  3
   2440   2436   2443   2446     1  180.0000771  2.0083200  2
   2440   2436   2443   2446     1  0.0000000  1.2552000  3
   2440   2452   2458   5048     1  0.0000000  0.6508444  3
   2443   2436   2437   2449     1  180.0000771  2.0083200  2
   2443   2436   2437   2449     1  0.0000000  1.2552000  3
   2443   2436   2440   2452     1  180.0000771  2.0083200  2
   2443   2436   2440   2452     1  0.0000000  1.2552000  3
   2443   2446   2455   2464     1  0.0000000  0.6508444  3
   2449   2461   5079   5049     1  180.0000771  0.4184000  2
   2449   2461   5079   5049     1  0.0000000  1.6024720  3
   2452   2458   5048   5018     1  180.0000771  0.4184000  2
   2452   2458   5048   5018     1  0.0000000  1.6024720  3
   2458   5048   5018   5021     1  180.0000771  0.4184000  2
   2458   5048   5018   5021     1  0.0000000  1.6024720  3
   2461   5079   5049   5052     1  180.0000771  0.4184000  2
   2461   5079   5049   5052     1  0.0000000  1.6024720  3
   2465   2466   2478   2490     1  0.0000000  0.6508444  3
   2465   2469   2481   2487     1  0.0000000  0.6508444  3
   2465   2472   2475   2484     1  0.0000000  0.6508444  3
   2466   2465   2469   2481     1  180.0000771  2.0083200  2
   2466   2465   2469   2481     1  0.0000000  1.2552000  3
   2466   2465   2472   2475     1  180.0000771  2.0083200  2
   2466   2465   2472   2475     1  0.0000000  1.2552000  3
   2466   2478   2490   5141     1  0.0000000  0.6508444  3
   2469   2465   2466   2478     1  180.0000771  2.0083200  2
   2469   2465   2466   2478     1  0.0000000  1.2552000  3
   2469   2465   2472   2475     1  180.0000771  2.0083200  2
   2469   2465   2472   2475     1  0.0000000  1.2552000  3
   2469   2481   2487   5110     1  0.0000000  0.6508444  3
   2472   2465   2466   2478     1  180.0000771  2.0083200  2
   2472   2465   2466   2478     1  0.0000000  1.2552000  3
   2472   2465   2469   2481     1  180.0000771  2.0083200  2
   2472   2465   2469   2481     1  0.0000000  1.2552000  3
   2472   2475   2484   2493     1  0.0000000  0.6508444  3
   2478   2490   5141   5111     1  180.0000771  0.4184000  2
   2478   2490   5141   5111     1  0.0000000  1.6024720  3
   2481   2487   5110   5080     1  180.0000771  0.4184000  2
   2481   2487   5110   5080     1  0.0000000  1.6024720  3
   2487   5110   5080   5083     1  180.0000771  0.4184000  2
   2487   5110   5080   5083     1  0.0000000  1.6024720  3
   2490   5141   5111   5114     1  180.0000771  0.4184000  2
   2490   5141   5111   5114     1  0.0000000  1.6024720  3
   2494   2495   2507   2519     1  0.0000000  0.6508444  3
   2494   2498   2510   2516     1  0.0000000  0.6508444  3
   2494   2501   2504   2513     1  0.0000000  0.6508444  3
   2495   2494   2498   2510     1  180.0000771  2.0083200  2
   2495   2494   2498   2510     1  0.0000000  1.2552000  3
   2495   2494   2501   2504     1  180.0000771  2.0083200  2
   2495   2494   2501   2504     1  0.0000000  1.2552000  3
   2495   2507   2519   5203     1  0.0000000  0.6508444  3
   2498   2494   2495   2507     1  180.0000771  2.0083200  2
   2498   2494   2495   2507     1  0.0000000  1.2552000  3
   2498   2494   2501   2504     1  180.0000771  2.0083200  2
   2498   2494   2501   2504     1  0.0000000  1.2552000  3
   2498   2510   2516   5172     1  0.0000000  0.6508444  3
   2501   2494   2495   2507     1  180.0000771  2.0083200  2
   2501   2494   2495   2507     1  0.0000000  1.2552000  3
   2501   2494   2498   2510     1  180.0000771  2.0083200  2
   2501   2494   2498   2510     1  0.0000000  1.2552000  3
   2501   2504   2513   2522     1  0.0000000  0.6508444  3
   2507   2519   5203   5173     1  180.0000771  0.4184000  2
   2507   2519   5203   5173     1  0.0000000  1.6024720  3
   2510   2516   5172   5142     1  180.0000771  0.4184000  2
   2510   2516   5172   5142     1  0.0000000  1.6024720  3
   2516   5172   5142   5145     1  180.0000771  0.4184000  2
   2516   5172   5142   5145     1  0.0000000  1.6024720  3
   2519   5203   5173   5176     1  180.0000771  0.4184000  2
   2519   5203   5173   5176     1  0.0000000  1.6024720  3
   2523   2524   2536   2548     1  0.0000000  0.6508444  3
   2523   2527   2539   2545     1  0.0000000  0.6508444  3
   2523   2530   2533   2542     1  0.0000000  0.6508444  3
   2524   2523   2527   2539     1  180.0000771  2.0083200  2
   2524   2523   2527   2539     1  0.0000000  1.2552000  3
   2524   2523   2530   2533     1  180.0000771  2.0083200  2
   2524   2523   2530   2533     1  0.0000000  1.2552000  3
   2524   2536   2548   5265     1  0.0000000  0.6508444  3
   2527   2523   2524   2536     1  180.0000771  2.0083200  2
   2527   2523   2524   2536     1  0.0000000  1.2552000  3
   2527   2523   2530   2533     1  180.0000771  2.0083200  2
   2527   2523   2530   2533     1  0.0000000  1.2552000  3
   2527   2539   2545   5234     1  0.0000000  0.6508444  3
   2530   2523   2524   2536     1  180.0000771  2.0083200  2
   2530   2523   2524   2536     1  0.0000000  1.2552000  3
   2530   2523   2527   2539     1  180.0000771  2.0083200  2
   2530   2523   2527   2539     1  0.0000000  1.2552000  3
   2530   2533   2542   2551     1  0.0000000  0.6508444  3
   2536   2548   5265   5235     1  180.0000771  0.4184000  2
   2536   2548   5265   5235     1  0.0000000  1.6024720  3
   2539   2545   5234   5204     1  180.0000771  0.4184000  2
   2539   2545   5234   5204     1  0.0000000  1.6024720  3
   2545   5234   5204   5207     1  180.0000771  0.4184000  2
   2545   5234   5204   5207     1  0.0000000  1.6024720  3
   2548   5265   5235   5238     1  180.0000771  0.4184000  2
   2548   5265   5235   5238     1  0.0000000  1.6024720  3
   2552   2553   2565   2577     1  0.0000000  0.6508444  3
   2552   2556   2568   2574     1  0.0000000  0.6508444  3
   2552   2559   2562   2571     1  0.0000000  0.6508444  3
   2553   2552   2556   2568     1  180.0000771  2.0083200  2
   2553   2552   2556   2568     1  0.0000000  1.2552000  3
   2553   2552   2559   2562     1  180.0000771  2.0083200  2
   2553   2552   2559   2562     1  0.0000000  1.2552000  3
   2553   2565   2577   5327     1  0.0000000  0.6508444  3
   2556   2552   2553   2565     1  180.0000771  2.0083200  2
   2556   2552   2553   2565     1  0.0000000  1.2552000  3
   2556   2552   2559   2562     1  180.0000771  2.0083200  2
   2556   2552   2559   2562     1  0.0000000  1.2552000  3
   2556   2568   2574   5296     1  0.0000000  0.6508444  3
   2559   2552   2553   2565     1  180.0000771  2.0083200  2
   2559   2552   2553   2565     1  0.0000000  1.2552000  3
   2559   2552   2556   2568     1  180.0000771  2.0083200  2
   2559   2552   2556   2568     1  0.0000000  1.2552000  3
   2559   2562   2571   2580     1  0.0000000  0.6508444  3
   2565   2577   5327   5297     1  180.0000771  0.4184000  2
   2565   2577   5327   5297     1  0.0000000  1.6024720  3
   2568   2574   5296   5266     1  180.0000771  0.4184000  2
   2568   2574   5296   5266     1  0.0000000  1.6024720  3
   2574   5296   5266   5269     1  180.0000771  0.4184000  2
   2574   5296   5266   5269     1  0.0000000  1.6024720  3
   2577   5327   5297   5300     1  180.0000771  0.4184000  2
   2577   5327   5297   5300     1  0.0000000  1.6024720  3
   2581   2582   2594   2606     1  0.0000000  0.6508444  3
   2581   2585   2597   2603     1  0.0000000  0.6508444  3
   2581   2588   2591   2600     1  0.0000000  0.6508444  3
   2582   2581   2585   2597     1  180.0000771  2.0083200  2
   2582   2581   2585   2597     1  0.0000000  1.2552000  3
   2582   2581   2588   2591     1  180.0000771  2.0083200  2
   2582   2581   2588   2591     1  0.0000000  1.2552000  3
   2582   2594   2606   5389     1  0.0000000  0.6508444  3
   2585   2581   2582   2594     1  180.0000771  2.0083200  2
   2585   2581   2582   2594     1  0.0000000  1.2552000  3
   2585   2581   2588   2591     1  180.0000771  2.0083200  2
   2585   2581   2588   2591     1  0.0000000  1.2552000  3
   2585   2597   2603   5358     1  0.0000000  0.6508444  3
   2588   2581   2582   2594     1  180.0000771  2.0083200  2
   2588   2581   2582   2594     1  0.0000000  1.2552000  3
   2588   2581   2585   2597     1  180.0000771  2.0083200  2
   2588   2581   2585   2597     1  0.0000000  1.2552000  3
   2588   2591   2600   2609     1  0.0000000  0.6508444  3
   2594   2606   5389   5359     1  180.0000771  0.4184000  2
   2594   2606   5389   5359     1  0.0000000  1.6024720  3
   2597   2603   5358   5328     1  180.0000771  0.4184000  2
   2597   2603   5358   5328     1  0.0000000  1.6024720  3
   2603   5358   5328   5331     1  180.0000771  0.4184000  2
   2603   5358   5328   5331     1  0.0000000  1.6024720  3
   2606   5389   5359   5362     1  180.0000771  0.4184000  2
   2606   5389   5359   5362     1  0.0000000  1.6024720  3
   2610   2611   2623   2635     1  0.0000000  0.6508444  3
   2610   2614   2626   2632     1  0.0000000  0.6508444  3
   2610   2617   2620   2629     1  0.0000000  0.6508444  3
   2611   2610   2614   2626     1  180.0000771  2.0083200  2
   2611   2610   2614   2626     1  0.0000000  1.2552000  3
   2611   2610   2617   2620     1  180.0000771  2.0083200  2
   2611   2610   2617   2620     1  0.0000000  1.2552000  3
   2611   2623   2635   5451     1  0.0000000  0.6508444  3
   2614   2610   2611   2623     1  180.0000771  2.0083200  2
   2614   2610   2611   2623     1  0.0000000  1.2552000  3
   2614   2610   2617   2620     1  180.0000771  2.0083200  2
   2614   2610   2617   2620     1  0.0000000  1.2552000  3
   2614   2626   2632   5420     1  0.0000000  0.6508444  3
   2617   2610   2611   2623     1  180.0000771  2.0083200  2
   2617   2610   2611   2623     1  0.0000000  1.2552000  3
   2617   2610   2614   2626     1  180.0000771  2.0083200  2
   2617   2610   2614   2626     1  0.0000000  1.2552000  3
   2617   2620   2629   2638     1  0.0000000  0.6508444  3
   2623   2635   5451   5421     1  180.0000771  0.4184000  2
   2623   2635   5451   5421     1  0.0000000  1.6024720  3
   2626   2632   5420   5390     1  180.0000771  0.4184000  2
   2626   2632   5420   5390     1  0.0000000  1.6024720  3
   2632   5420   5390   5393     1  180.0000771  0.4184000  2
   2632   5420   5390   5393     1  0.0000000  1.6024720  3
   2635   5451   5421   5424     1  180.0000771  0.4184000  2
   2635   5451   5421   5424     1  0.0000000  1.6024720  3
   2639   2640   2652   2664     1  0.0000000  0.6508444  3
   2639   2643   2655   2661     1  0.0000000  0.6508444  3
   2639   2646   2649   2658     1  0.0000000  0.6508444  3
   2640   2639   2643   2655     1  180.0000771  2.0083200  2
   2640   2639   2643   2655     1  0.0000000  1.2552000  3
   2640   2639   2646   2649     1  180.0000771  2.0083200  2
   2640   2639   2646   2649     1  0.0000000  1.2552000  3
   2640   2652   2664   5513     1  0.0000000  0.6508444  3
   2643   2639   2640   2652     1  180.0000771  2.0083200  2
   2643   2639   2640   2652     1  0.0000000  1.2552000  3
   2643   2639   2646   2649     1  180.0000771  2.0083200  2
   2643   2639   2646   2649     1  0.0000000  1.2552000  3
   2643   2655   2661   5482     1  0.0000000  0.6508444  3
   2646   2639   2640   2652     1  180.0000771  2.0083200  2
   2646   2639   2640   2652     1  0.0000000  1.2552000  3
   2646   2639   2643   2655     1  180.0000771  2.0083200  2
   2646   2639   2643   2655     1  0.0000000  1.2552000  3
   2646   2649   2658   2667     1  0.0000000  0.6508444  3
   2652   2664   5513   5483     1  180.0000771  0.4184000  2
   2652   2664   5513   5483     1  0.0000000  1.6024720  3
   2655   2661   5482   5452     1  180.0000771  0.4184000  2
   2655   2661   5482   5452     1  0.0000000  1.6024720  3
   2661   5482   5452   5455     1  180.0000771  0.4184000  2
   2661   5482   5452   5455     1  0.0000000  1.6024720  3
   2664   5513   5483   5486     1  180.0000771  0.4184000  2
   2664   5513   5483   5486     1  0.0000000  1.6024720  3
   2668   2669   2681   2693     1  0.0000000  0.6508444  3
   2668   2672   2684   2690     1  0.0000000  0.6508444  3
   2668   2675   2678   2687     1  0.0000000  0.6508444  3
   2669   2668   2672   2684     1  180.0000771  2.0083200  2
   2669   2668   2672   2684     1  0.0000000  1.2552000  3
   2669   2668   2675   2678     1  180.0000771  2.0083200  2
   2669   2668   2675   2678     1  0.0000000  1.2552000  3
   2669   2681   2693   5575     1  0.0000000  0.6508444  3
   2672   2668   2669   2681     1  180.0000771  2.0083200  2
   2672   2668   2669   2681     1  0.0000000  1.2552000  3
   2672   2668   2675   2678     1  180.0000771  2.0083200  2
   2672   2668   2675   2678     1  0.0000000  1.2552000  3
   2672   2684   2690   5544     1  0.0000000  0.6508444  3
   2675   2668   2669   2681     1  180.0000771  2.0083200  2
   2675   2668   2669   2681     1  0.0000000  1.2552000  3
   2675   2668   2672   2684     1  180.0000771  2.0083200  2
   2675   2668   2672   2684     1  0.0000000  1.2552000  3
   2675   2678   2687   2696     1  0.0000000  0.6508444  3
   2681   2693   5575   5545     1  180.0000771  0.4184000  2
   2681   2693   5575   5545     1  0.0000000  1.6024720  3
   2684   2690   5544   5514     1  180.0000771  0.4184000  2
   2684   2690   5544   5514     1  0.0000000  1.6024720  3
   2690   5544   5514   5517     1  180.0000771  0.4184000  2
   2690   5544   5514   5517     1  0.0000000  1.6024720  3
   2693   5575   5545   5548     1  180.0000771  0.4184000  2
   2693   5575   5545   5548     1  0.0000000  1.6024720  3
   2697   2698   2710   2722     1  0.0000000  0.6508444  3
   2697   2701   2713   2719     1  0.0000000  0.6508444  3
   2697   2704   2707   2716     1  0.0000000  0.6508444  3
   2698   2697   2701   2713     1  180.0000771  2.0083200  2
   2698   2697   2701   2713     1  0.0000000  1.2552000  3
   2698   2697   2704   2707     1  180.0000771  2.0083200  2
   2698   2697   2704   2707     1  0.0000000  1.2552000  3
   2698   2710   2722   5637     1  0.0000000  0.6508444  3
   2701   2697   2698   2710     1  180.0000771  2.0083200  2
   2701   2697   2698   2710     1  0.0000000  1.2552000  3
   2701   2697   2704   2707     1  180.0000771  2.0083200  2
   2701   2697   2704   2707     1  0.0000000  1.2552000  3
   2701   2713   2719   5606     1  0.0000000  0.6508444  3
   2704   2697   2698   2710     1  180.0000771  2.0083200  2
   2704   2697   2698   2710     1  0.0000000  1.2552000  3
   2704   2697   2701   2713     1  180.0000771  2.0083200  2
   2704   2697   2701   2713     1  0.0000000  1.2552000  3
   2704   2707   2716   2725     1  0.0000000  0.6508444  3
   2710   2722   5637   5607     1  180.0000771  0.4184000  2
   2710   2722   5637   5607     1  0.0000000  1.6024720  3
   2713   2719   5606   5576     1  180.0000771  0.4184000  2
   2713   2719   5606   5576     1  0.0000000  1.6024720  3
   2719   5606   5576   5579     1  180.0000771  0.4184000  2
   2719   5606   5576   5579     1  0.0000000  1.6024720  3
   2722   5637   5607   5610     1  180.0000771  0.4184000  2
   2722   5637   5607   5610     1  0.0000000  1.6024720  3
   2726   2727   2739   2751     1  0.0000000  0.6508444  3
   2726   2730   2742   2748     1  0.0000000  0.6508444  3
   2726   2733   2736   2745     1  0.0000000  0.6508444  3
   2727   2726   2730   2742     1  180.0000771  2.0083200  2
   2727   2726   2730   2742     1  0.0000000  1.2552000  3
   2727   2726   2733   2736     1  180.0000771  2.0083200  2
   2727   2726   2733   2736     1  0.0000000  1.2552000  3
   2727   2739   2751   5699     1  0.0000000  0.6508444  3
   2730   2726   2727   2739     1  180.0000771  2.0083200  2
   2730   2726   2727   2739     1  0.0000000  1.2552000  3
   2730   2726   2733   2736     1  180.0000771  2.0083200  2
   2730   2726   2733   2736     1  0.0000000  1.2552000  3
   2730   2742   2748   5668     1  0.0000000  0.6508444  3
   2733   2726   2727   2739     1  180.0000771  2.0083200  2
   2733   2726   2727   2739     1  0.0000000  1.2552000  3
   2733   2726   2730   2742     1  180.0000771  2.0083200  2
   2733   2726   2730   2742     1  0.0000000  1.2552000  3
   2733   2736   2745   2754     1  0.0000000  0.6508444  3
   2739   2751   5699   5669     1  180.0000771  0.4184000  2
   2739   2751   5699   5669     1  0.0000000  1.6024720  3
   2742   2748   5668   5638     1  180.0000771  0.4184000  2
   2742   2748   5668   5638     1  0.0000000  1.6024720  3
   2748   5668   5638   5641     1  180.0000771  0.4184000  2
   2748   5668   5638   5641     1  0.0000000  1.6024720  3
   2751   5699   5669   5672     1  180.0000771  0.4184000  2
   2751   5699   5669   5672     1  0.0000000  1.6024720  3
   2755   2756   2768   2780     1  0.0000000  0.6508444  3
   2755   2759   2771   2777     1  0.0000000  0.6508444  3
   2755   2762   2765   2774     1  0.0000000  0.6508444  3
   2756   2755   2759   2771     1  180.0000771  2.0083200  2
   2756   2755   2759   2771     1  0.0000000  1.2552000  3
   2756   2755   2762   2765     1  180.0000771  2.0083200  2
   2756   2755   2762   2765     1  0.0000000  1.2552000  3
   2756   2768   2780   5761     1  0.0000000  0.6508444  3
   2759   2755   2756   2768     1  180.0000771  2.0083200  2
   2759   2755   2756   2768     1  0.0000000  1.2552000  3
   2759   2755   2762   2765     1  180.0000771  2.0083200  2
   2759   2755   2762   2765     1  0.0000000  1.2552000  3
   2759   2771   2777   5730     1  0.0000000  0.6508444  3
   2762   2755   2756   2768     1  180.0000771  2.0083200  2
   2762   2755   2756   2768     1  0.0000000  1.2552000  3
   2762   2755   2759   2771     1  180.0000771  2.0083200  2
   2762   2755   2759   2771     1  0.0000000  1.2552000  3
   2762   2765   2774   2783     1  0.0000000  0.6508444  3
   2768   2780   5761   5731     1  180.0000771  0.4184000  2
   2768   2780   5761   5731     1  0.0000000  1.6024720  3
   2771   2777   5730   5700     1  180.0000771  0.4184000  2
   2771   2777   5730   5700     1  0.0000000  1.6024720  3
   2777   5730   5700   5703     1  180.0000771  0.4184000  2
   2777   5730   5700   5703     1  0.0000000  1.6024720  3
   2780   5761   5731   5734     1  180.0000771  0.4184000  2
   2780   5761   5731   5734     1  0.0000000  1.6024720  3
   2784   2785   2797   2809     1  0.0000000  0.6508444  3
   2784   2788   2800   2806     1  0.0000000  0.6508444  3
   2784   2791   2794   2803     1  0.0000000  0.6508444  3
   2785   2784   2788   2800     1  180.0000771  2.0083200  2
   2785   2784   2788   2800     1  0.0000000  1.2552000  3
   2785   2784   2791   2794     1  180.0000771  2.0083200  2
   2785   2784   2791   2794     1  0.0000000  1.2552000  3
   2785   2797   2809   5823     1  0.0000000  0.6508444  3
   2788   2784   2785   2797     1  180.0000771  2.0083200  2
   2788   2784   2785   2797     1  0.0000000  1.2552000  3
   2788   2784   2791   2794     1  180.0000771  2.0083200  2
   2788   2784   2791   2794     1  0.0000000  1.2552000  3
   2788   2800   2806   5792     1  0.0000000  0.6508444  3
   2791   2784   2785   2797     1  180.0000771  2.0083200  2
   2791   2784   2785   2797     1  0.0000000  1.2552000  3
   2791   2784   2788   2800     1  180.0000771  2.0083200  2
   2791   2784   2788   2800     1  0.0000000  1.2552000  3
   2791   2794   2803   2812     1  0.0000000  0.6508444  3
   2797   2809   5823   5793     1  180.0000771  0.4184000  2
   2797   2809   5823   5793     1  0.0000000  1.6024720  3
   2800   2806   5792   5762     1  180.0000771  0.4184000  2
   2800   2806   5792   5762     1  0.0000000  1.6024720  3
   2806   5792   5762   5765     1  180.0000771  0.4184000  2
   2806   5792   5762   5765     1  0.0000000  1.6024720  3
   2809   5823   5793   5796     1  180.0000771  0.4184000  2
   2809   5823   5793   5796     1  0.0000000  1.6024720  3
   2813   2814   2826   2838     1  0.0000000  0.6508444  3
   2813   2817   2829   2835     1  0.0000000  0.6508444  3
   2813   2820   2823   2832     1  0.0000000  0.6508444  3
   2814   2813   2817   2829     1  180.0000771  2.0083200  2
   2814   2813   2817   2829     1  0.0000000  1.2552000  3
   2814   2813   2820   2823     1  180.0000771  2.0083200  2
   2814   2813   2820   2823     1  0.0000000  1.2552000  3
   2814   2826   2838   5885     1  0.0000000  0.6508444  3
   2817   2813   2814   2826     1  180.0000771  2.0083200  2
   2817   2813   2814   2826     1  0.0000000  1.2552000  3
   2817   2813   2820   2823     1  180.0000771  2.0083200  2
   2817   2813   2820   2823     1  0.0000000  1.2552000  3
   2817   2829   2835   5854     1  0.0000000  0.6508444  3
   2820   2813   2814   2826     1  180.0000771  2.0083200  2
   2820   2813   2814   2826     1  0.0000000  1.2552000  3
   2820   2813   2817   2829     1  180.0000771  2.0083200  2
   2820   2813   2817   2829     1  0.0000000  1.2552000  3
   2820   2823   2832   2841     1  0.0000000  0.6508444  3
   2826   2838   5885   5855     1  180.0000771  0.4184000  2
   2826   2838   5885   5855     1  0.0000000  1.6024720  3
   2829   2835   5854   5824     1  180.0000771  0.4184000  2
   2829   2835   5854   5824     1  0.0000000  1.6024720  3
   2835   5854   5824   5827     1  180.0000771  0.4184000  2
   2835   5854   5824   5827     1  0.0000000  1.6024720  3
   2838   5885   5855   5858     1  180.0000771  0.4184000  2
   2838   5885   5855   5858     1  0.0000000  1.6024720  3
   2842   2843   2855   2867     1  0.0000000  0.6508444  3
   2842   2846   2858   2864     1  0.0000000  0.6508444  3
   2842   2849   2852   2861     1  0.0000000  0.6508444  3
   2843   2842   2846   2858     1  180.0000771  2.0083200  2
   2843   2842   2846   2858     1  0.0000000  1.2552000  3
   2843   2842   2849   2852     1  180.0000771  2.0083200  2
   2843   2842   2849   2852     1  0.0000000  1.2552000  3
   2843   2855   2867   5947     1  0.0000000  0.6508444  3
   2846   2842   2843   2855     1  180.0000771  2.0083200  2
   2846   2842   2843   2855     1  0.0000000  1.2552000  3
   2846   2842   2849   2852     1  180.0000771  2.0083200  2
   2846   2842   2849   2852     1  0.0000000  1.2552000  3
   2846   2858   2864   5916     1  0.0000000  0.6508444  3
   2849   2842   2843   2855     1  180.0000771  2.0083200  2
   2849   2842   2843   2855     1  0.0000000  1.2552000  3
   2849   2842   2846   2858     1  180.0000771  2.0083200  2
   2849   2842   2846   2858     1  0.0000000  1.2552000  3
   2849   2852   2861   2870     1  0.0000000  0.6508444  3
   2855   2867   5947   5917     1  180.0000771  0.4184000  2
   2855   2867   5947   5917     1  0.0000000  1.6024720  3
   2858   2864   5916   5886     1  180.0000771  0.4184000  2
   2858   2864   5916   5886     1  0.0000000  1.6024720  3
   2864   5916   5886   5889     1  180.0000771  0.4184000  2
   2864   5916   5886   5889     1  0.0000000  1.6024720  3
   2867   5947   5917   5920     1  180.0000771  0.4184000  2
   2867   5947   5917   5920     1  0.0000000  1.6024720  3
   2871   2872   2884   2896     1  0.0000000  0.6508444  3
   2871   2875   2887   2893     1  0.0000000  0.6508444  3
   2871   2878   2881   2890     1  0.0000000  0.6508444  3
   2872   2871   2875   2887     1  180.0000771  2.0083200  2
   2872   2871   2875   2887     1  0.0000000  1.2552000  3
   2872   2871   2878   2881     1  180.0000771  2.0083200  2
   2872   2871   2878   2881     1  0.0000000  1.2552000  3
   2872   2884   2896   6009     1  0.0000000  0.6508444  3
   2875   2871   2872   2884     1  180.0000771  2.0083200  2
   2875   2871   2872   2884     1  0.0000000  1.2552000  3
   2875   2871   2878   2881     1  180.0000771  2.0083200  2
   2875   2871   2878   2881     1  0.0000000  1.2552000  3
   2875   2887   2893   5978     1  0.0000000  0.6508444  3
   2878   2871   2872   2884     1  180.0000771  2.0083200  2
   2878   2871   2872   2884     1  0.0000000  1.2552000  3
   2878   2871   2875   2887     1  180.0000771  2.0083200  2
   2878   2871   2875   2887     1  0.0000000  1.2552000  3
   2878   2881   2890   2899     1  0.0000000  0.6508444  3
   2884   2896   6009   5979     1  180.0000771  0.4184000  2
   2884   2896   6009   5979     1  0.0000000  1.6024720  3
   2887   2893   5978   5948     1  180.0000771  0.4184000  2
   2887   2893   5978   5948     1  0.0000000  1.6024720  3
   2893   5978   5948   5951     1  180.0000771  0.4184000  2
   2893   5978   5948   5951     1  0.0000000  1.6024720  3
   2896   6009   5979   5982     1  180.0000771  0.4184000  2
   2896   6009   5979   5982     1  0.0000000  1.6024720  3
   2900   2901   2913   2925     1  0.0000000  0.6508444  3
   2900   2904   2916   2922     1  0.0000000  0.6508444  3
   2900   2907   2910   2919     1  0.0000000  0.6508444  3
   2901   2900   2904   2916     1  180.0000771  2.0083200  2
   2901   2900   2904   2916     1  0.0000000  1.2552000  3
   2901   2900   2907   2910     1  180.0000771  2.0083200  2
   2901   2900   2907   2910     1  0.0000000  1.2552000  3
   2901   2913   2925   6071     1  0.0000000  0.6508444  3
   2904   2900   2901   2913     1  180.0000771  2.0083200  2
   2904   2900   2901   2913     1  0.0000000  1.2552000  3
   2904   2900   2907   2910     1  180.0000771  2.0083200  2
   2904   2900   2907   2910     1  0.0000000  1.2552000  3
   2904   2916   2922   6040     1  0.0000000  0.6508444  3
   2907   2900   2901   2913     1  180.0000771  2.0083200  2
   2907   2900   2901   2913     1  0.0000000  1.2552000  3
   2907   2900   2904   2916     1  180.0000771  2.0083200  2
   2907   2900   2904   2916     1  0.0000000  1.2552000  3
   2907   2910   2919   2928     1  0.0000000  0.6508444  3
   2913   2925   6071   6041     1  180.0000771  0.4184000  2
   2913   2925   6071   6041     1  0.0000000  1.6024720  3
   2916   2922   6040   6010     1  180.0000771  0.4184000  2
   2916   2922   6040   6010     1  0.0000000  1.6024720  3
   2922   6040   6010   6013     1  180.0000771  0.4184000  2
   2922   6040   6010   6013     1  0.0000000  1.6024720  3
   2925   6071   6041   6044     1  180.0000771  0.4184000  2
   2925   6071   6041   6044     1  0.0000000  1.6024720  3
   2929   2930   2942   2954     1  0.0000000  0.6508444  3
   2929   2933   2945   2951     1  0.0000000  0.6508444  3
   2929   2936   2939   2948     1  0.0000000  0.6508444  3
   2930   2929   2933   2945     1  180.0000771  2.0083200  2
   2930   2929   2933   2945     1  0.0000000  1.2552000  3
   2930   2929   2936   2939     1  180.0000771  2.0083200  2
   2930   2929   2936   2939     1  0.0000000  1.2552000  3
   2930   2942   2954   6133     1  0.0000000  0.6508444  3
   2933   2929   2930   2942     1  180.0000771  2.0083200  2
   2933   2929   2930   2942     1  0.0000000  1.2552000  3
   2933   2929   2936   2939     1  180.0000771  2.0083200  2
   2933   2929   2936   2939     1  0.0000000  1.2552000  3
   2933   2945   2951   6102     1  0.0000000  0.6508444  3
   2936   2929   2930   2942     1  180.0000771  2.0083200  2
   2936   2929   2930   2942     1  0.0000000  1.2552000  3
   2936   2929   2933   2945     1  180.0000771  2.0083200  2
   2936   2929   2933   2945     1  0.0000000  1.2552000  3
   2936   2939   2948   2957     1  0.0000000  0.6508444  3
   2942   2954   6133   6103     1  180.0000771  0.4184000  2
   2942   2954   6133   6103     1  0.0000000  1.6024720  3
   2945   2951   6102   6072     1  180.0000771  0.4184000  2
   2945   2951   6102   6072     1  0.0000000  1.6024720  3
   2951   6102   6072   6075     1  180.0000771  0.4184000  2
   2951   6102   6072   6075     1  0.0000000  1.6024720  3
   2954   6133   6103   6106     1  180.0000771  0.4184000  2
   2954   6133   6103   6106     1  0.0000000  1.6024720  3
   2958   2959   2971   2983     1  0.0000000  0.6508444  3
   2958   2962   2974   2980     1  0.0000000  0.6508444  3
   2958   2965   2968   2977     1  0.0000000  0.6508444  3
   2959   2958   2962   2974     1  180.0000771  2.0083200  2
   2959   2958   2962   2974     1  0.0000000  1.2552000  3
   2959   2958   2965   2968     1  180.0000771  2.0083200  2
   2959   2958   2965   2968     1  0.0000000  1.2552000  3
   2959   2971   2983   6195     1  0.0000000  0.6508444  3
   2962   2958   2959   2971     1  180.0000771  2.0083200  2
   2962   2958   2959   2971     1  0.0000000  1.2552000  3
   2962   2958   2965   2968     1  180.0000771  2.0083200  2
   2962   2958   2965   2968     1  0.0000000  1.2552000  3
   2962   2974   2980   6164     1  0.0000000  0.6508444  3
   2965   2958   2959   2971     1  180.0000771  2.0083200  2
   2965   2958   2959   2971     1  0.0000000  1.2552000  3
   2965   2958   2962   2974     1  180.0000771  2.0083200  2
   2965   2958   2962   2974     1  0.0000000  1.2552000  3
   2965   2968   2977   2986     1  0.0000000  0.6508444  3
   2971   2983   6195   6165     1  180.0000771  0.4184000  2
   2971   2983   6195   6165     1  0.0000000  1.6024720  3
   2974   2980   6164   6134     1  180.0000771  0.4184000  2
   2974   2980   6164   6134     1  0.0000000  1.6024720  3
   2980   6164   6134   6137     1  180.0000771  0.4184000  2
   2980   6164   6134   6137     1  0.0000000  1.6024720  3
   2983   6195   6165   6168     1  180.0000771  0.4184000  2
   2983   6195   6165   6168     1  0.0000000  1.6024720  3
   2987   2988   3000   3012     1  0.0000000  0.6508444  3
   2987   2991   3003   3009     1  0.0000000  0.6508444  3
   2987   2994   2997   3006     1  0.0000000  0.6508444  3
   2988   2987   2991   3003     1  180.0000771  2.0083200  2
   2988   2987   2991   3003     1  0.0000000  1.2552000  3
   2988   2987   2994   2997     1  180.0000771  2.0083200  2
   2988   2987   2994   2997     1  0.0000000  1.2552000  3
   2988   3000   3012   6257     1  0.0000000  0.6508444  3
   2991   2987   2988   3000     1  180.0000771  2.0083200  2
   2991   2987   2988   3000     1  0.0000000  1.2552000  3
   2991   2987   2994   2997     1  180.0000771  2.0083200  2
   2991   2987   2994   2997     1  0.0000000  1.2552000  3
   2991   3003   3009   6226     1  0.0000000  0.6508444  3
   2994   2987   2988   3000     1  180.0000771  2.0083200  2
   2994   2987   2988   3000     1  0.0000000  1.2552000  3
   2994   2987   2991   3003     1  180.0000771  2.0083200  2
   2994   2987   2991   3003     1  0.0000000  1.2552000  3
   2994   2997   3006   3015     1  0.0000000  0.6508444  3
   3000   3012   6257   6227     1  180.0000771  0.4184000  2
   3000   3012   6257   6227     1  0.0000000  1.6024720  3
   3003   3009   6226   6196     1  180.0000771  0.4184000  2
   3003   3009   6226   6196     1  0.0000000  1.6024720  3
   3009   6226   6196   6199     1  180.0000771  0.4184000  2
   3009   6226   6196   6199     1  0.0000000  1.6024720  3
   3012   6257   6227   6230     1  180.0000771  0.4184000  2
   3012   6257   6227   6230     1  0.0000000  1.6024720  3
   3016   3017   3029   3041     1  0.0000000  0.6508444  3
   3016   3020   3032   3038     1  0.0000000  0.6508444  3
   3016   3023   3026   3035     1  0.0000000  0.6508444  3
   3017   3016   3020   3032     1  180.0000771  2.0083200  2
   3017   3016   3020   3032     1  0.0000000  1.2552000  3
   3017   3016   3023   3026     1  180.0000771  2.0083200  2
   3017   3016   3023   3026     1  0.0000000  1.2552000  3
   3017   3029   3041   6319     1  0.0000000  0.6508444  3
   3020   3016   3017   3029     1  180.0000771  2.0083200  2
   3020   3016   3017   3029     1  0.0000000  1.2552000  3
   3020   3016   3023   3026     1  180.0000771  2.0083200  2
   3020   3016   3023   3026     1  0.0000000  1.2552000  3
   3020   3032   3038   6288     1  0.0000000  0.6508444  3
   3023   3016   3017   3029     1  180.0000771  2.0083200  2
   3023   3016   3017   3029     1  0.0000000  1.2552000  3
   3023   3016   3020   3032     1  180.0000771  2.0083200  2
   3023   3016   3020   3032     1  0.0000000  1.2552000  3
   3023   3026   3035   3044     1  0.0000000  0.6508444  3
   3029   3041   6319   6289     1  180.0000771  0.4184000  2
   3029   3041   6319   6289     1  0.0000000  1.6024720  3
   3032   3038   6288   6258     1  180.0000771  0.4184000  2
   3032   3038   6288   6258     1  0.0000000  1.6024720  3
   3038   6288   6258   6261     1  180.0000771  0.4184000  2
   3038   6288   6258   6261     1  0.0000000  1.6024720  3
   3041   6319   6289   6292     1  180.0000771  0.4184000  2
   3041   6319   6289   6292     1  0.0000000  1.6024720  3
   3045   3046   3058   3070     1  0.0000000  0.6508444  3
   3045   3049   3061   3067     1  0.0000000  0.6508444  3
   3045   3052   3055   3064     1  0.0000000  0.6508444  3
   3046   3045   3049   3061     1  180.0000771  2.0083200  2
   3046   3045   3049   3061     1  0.0000000  1.2552000  3
   3046   3045   3052   3055     1  180.0000771  2.0083200  2
   3046   3045   3052   3055     1  0.0000000  1.2552000  3
   3046   3058   3070   6381     1  0.0000000  0.6508444  3
   3049   3045   3046   3058     1  180.0000771  2.0083200  2
   3049   3045   3046   3058     1  0.0000000  1.2552000  3
   3049   3045   3052   3055     1  180.0000771  2.0083200  2
   3049   3045   3052   3055     1  0.0000000  1.2552000  3
   3049   3061   3067   6350     1  0.0000000  0.6508444  3
   3052   3045   3046   3058     1  180.0000771  2.0083200  2
   3052   3045   3046   3058     1  0.0000000  1.2552000  3
   3052   3045   3049   3061     1  180.0000771  2.0083200  2
   3052   3045   3049   3061     1  0.0000000  1.2552000  3
   3052   3055   3064   3073     1  0.0000000  0.6508444  3
   3058   3070   6381   6351     1  180.0000771  0.4184000  2
   3058   3070   6381   6351     1  0.0000000  1.6024720  3
   3061   3067   6350   6320     1  180.0000771  0.4184000  2
   3061   3067   6350   6320     1  0.0000000  1.6024720  3
   3067   6350   6320   6323     1  180.0000771  0.4184000  2
   3067   6350   6320   6323     1  0.0000000  1.6024720  3
   3070   6381   6351   6354     1  180.0000771  0.4184000  2
   3070   6381   6351   6354     1  0.0000000  1.6024720  3
   3074   3075   3087   3099     1  0.0000000  0.6508444  3
   3074   3078   3090   3096     1  0.0000000  0.6508444  3
   3074   3081   3084   3093     1  0.0000000  0.6508444  3
   3075   3074   3078   3090     1  180.0000771  2.0083200  2
   3075   3074   3078   3090     1  0.0000000  1.2552000  3
   3075   3074   3081   3084     1  180.0000771  2.0083200  2
   3075   3074   3081   3084     1  0.0000000  1.2552000  3
   3075   3087   3099   6443     1  0.0000000  0.6508444  3
   3078   3074   3075   3087     1  180.0000771  2.0083200  2
   3078   3074   3075   3087     1  0.0000000  1.2552000  3
   3078   3074   3081   3084     1  180.0000771  2.0083200  2
   3078   3074   3081   3084     1  0.0000000  1.2552000  3
   3078   3090   3096   6412     1  0.0000000  0.6508444  3
   3081   3074   3075   3087     1  180.0000771  2.0083200  2
   3081   3074   3075   3087     1  0.0000000  1.2552000  3
   3081   3074   3078   3090     1  180.0000771  2.0083200  2
   3081   3074   3078   3090     1  0.0000000  1.2552000  3
   3081   3084   3093   3102     1  0.0000000  0.6508444  3
   3087   3099   6443   6413     1  180.0000771  0.4184000  2
   3087   3099   6443   6413     1  0.0000000  1.6024720  3
   3090   3096   6412   6382     1  180.0000771  0.4184000  2
   3090   3096   6412   6382     1  0.0000000  1.6024720  3
   3096   6412   6382   6385     1  180.0000771  0.4184000  2
   3096   6412   6382   6385     1  0.0000000  1.6024720  3
   3099   6443   6413   6416     1  180.0000771  0.4184000  2
   3099   6443   6413   6416     1  0.0000000  1.6024720  3
   3103   3104   3116   3128     1  0.0000000  0.6508444  3
   3103   3107   3119   3125     1  0.0000000  0.6508444  3
   3103   3110   3113   3122     1  0.0000000  0.6508444  3
   3104   3103   3107   3119     1  180.0000771  2.0083200  2
   3104   3103   3107   3119     1  0.0000000  1.2552000  3
   3104   3103   3110   3113     1  180.0000771  2.0083200  2
   3104   3103   3110   3113     1  0.0000000  1.2552000  3
   3104   3116   3128   6505     1  0.0000000  0.6508444  3
   3107   3103   3104   3116     1  180.0000771  2.0083200  2
   3107   3103   3104   3116     1  0.0000000  1.2552000  3
   3107   3103   3110   3113     1  180.0000771  2.0083200  2
   3107   3103   3110   3113     1  0.0000000  1.2552000  3
   3107   3119   3125   6474     1  0.0000000  0.6508444  3
   3110   3103   3104   3116     1  180.0000771  2.0083200  2
   3110   3103   3104   3116     1  0.0000000  1.2552000  3
   3110   3103   3107   3119     1  180.0000771  2.0083200  2
   3110   3103   3107   3119     1  0.0000000  1.2552000  3
   3110   3113   3122   3131     1  0.0000000  0.6508444  3
   3116   3128   6505   6475     1  180.0000771  0.4184000  2
   3116   3128   6505   6475     1  0.0000000  1.6024720  3
   3119   3125   6474   6444     1  180.0000771  0.4184000  2
   3119   3125   6474   6444     1  0.0000000  1.6024720  3
   3125   6474   6444   6447     1  180.0000771  0.4184000  2
   3125   6474   6444   6447     1  0.0000000  1.6024720  3
   3128   6505   6475   6478     1  180.0000771  0.4184000  2
   3128   6505   6475   6478     1  0.0000000  1.6024720  3
   3132   3133   3145   3157     1  0.0000000  0.6508444  3
   3132   3136   3148   3154     1  0.0000000  0.6508444  3
   3132   3139   3142   3151     1  0.0000000  0.6508444  3
   3133   3132   3136   3148     1  180.0000771  2.0083200  2
   3133   3132   3136   3148     1  0.0000000  1.2552000  3
   3133   3132   3139   3142     1  180.0000771  2.0083200  2
   3133   3132   3139   3142     1  0.0000000  1.2552000  3
   3133   3145   3157   6567     1  0.0000000  0.6508444  3
   3136   3132   3133   3145     1  180.0000771  2.0083200  2
   3136   3132   3133   3145     1  0.0000000  1.2552000  3
   3136   3132   3139   3142     1  180.0000771  2.0083200  2
   3136   3132   3139   3142     1  0.0000000  1.2552000  3
   3136   3148   3154   6536     1  0.0000000  0.6508444  3
   3139   3132   3133   3145     1  180.0000771  2.0083200  2
   3139   3132   3133   3145     1  0.0000000  1.2552000  3
   3139   3132   3136   3148     1  180.0000771  2.0083200  2
   3139   3132   3136   3148     1  0.0000000  1.2552000  3
   3139   3142   3151   3160     1  0.0000000  0.6508444  3
   3145   3157   6567   6537     1  180.0000771  0.4184000  2
   3145   3157   6567   6537     1  0.0000000  1.6024720  3
   3148   3154   6536   6506     1  180.0000771  0.4184000  2
   3148   3154   6536   6506     1  0.0000000  1.6024720  3
   3154   6536   6506   6509     1  180.0000771  0.4184000  2
   3154   6536   6506   6509     1  0.0000000  1.6024720  3
   3157   6567   6537   6540     1  180.0000771  0.4184000  2
   3157   6567   6537   6540     1  0.0000000  1.6024720  3
   3161   3162   3174   3186     1  0.0000000  0.6508444  3
   3161   3165   3177   3183     1  0.0000000  0.6508444  3
   3161   3168   3171   3180     1  0.0000000  0.6508444  3
   3162   3161   3165   3177     1  180.0000771  2.0083200  2
   3162   3161   3165   3177     1  0.0000000  1.2552000  3
   3162   3161   3168   3171     1  180.0000771  2.0083200  2
   3162   3161   3168   3171     1  0.0000000  1.2552000  3
   3162   3174   3186   6629     1  0.0000000  0.6508444  3
   3165   3161   3162   3174     1  180.0000771  2.0083200  2
   3165   3161   3162   3174     1  0.0000000  1.2552000  3
   3165   3161   3168   3171     1  180.0000771  2.0083200  2
   3165   3161   3168   3171     1  0.0000000  1.2552000  3
   3165   3177   3183   6598     1  0.0000000  0.6508444  3
   3168   3161   3162   3174     1  180.0000771  2.0083200  2
   3168   3161   3162   3174     1  0.0000000  1.2552000  3
   3168   3161   3165   3177     1  180.0000771  2.0083200  2
   3168   3161   3165   3177     1  0.0000000  1.2552000  3
   3168   3171   3180   3189     1  0.0000000  0.6508444  3
   3174   3186   6629   6599     1  180.0000771  0.4184000  2
   3174   3186   6629   6599     1  0.0000000  1.6024720  3
   3177   3183   6598   6568     1  180.0000771  0.4184000  2
   3177   3183   6598   6568     1  0.0000000  1.6024720  3
   3183   6598   6568   6571     1  180.0000771  0.4184000  2
   3183   6598   6568   6571     1  0.0000000  1.6024720  3
   3186   6629   6599   6602     1  180.0000771  0.4184000  2
   3186   6629   6599   6602     1  0.0000000  1.6024720  3
   3190   3191   3203   3215     1  0.0000000  0.6508444  3
   3190   3194   3206   3212     1  0.0000000  0.6508444  3
   3190   3197   3200   3209     1  0.0000000  0.6508444  3
   3191   3190   3194   3206     1  180.0000771  2.0083200  2
   3191   3190   3194   3206     1  0.0000000  1.2552000  3
   3191   3190   3197   3200     1  180.0000771  2.0083200  2
   3191   3190   3197   3200     1  0.0000000  1.2552000  3
   3191   3203   3215   6691     1  0.0000000  0.6508444  3
   3194   3190   3191   3203     1  180.0000771  2.0083200  2
   3194   3190   3191   3203     1  0.0000000  1.2552000  3
   3194   3190   3197   3200     1  180.0000771  2.0083200  2
   3194   3190   3197   3200     1  0.0000000  1.2552000  3
   3194   3206   3212   6660     1  0.0000000  0.6508444  3
   3197   3190   3191   3203     1  180.0000771  2.0083200  2
   3197   3190   3191   3203     1  0.0000000  1.2552000  3
   3197   3190   3194   3206     1  180.0000771  2.0083200  2
   3197   3190   3194   3206     1  0.0000000  1.2552000  3
   3197   3200   3209   3218     1  0.0000000  0.6508444  3
   3203   3215   6691   6661     1  180.0000771  0.4184000  2
   3203   3215   6691   6661     1  0.0000000  1.6024720  3
   3206   3212   6660   6630     1  180.0000771  0.4184000  2
   3206   3212   6660   6630     1  0.0000000  1.6024720  3
   3212   6660   6630   6633     1  180.0000771  0.4184000  2
   3212   6660   6630   6633     1  0.0000000  1.6024720  3
   3215   6691   6661   6664     1  180.0000771  0.4184000  2
   3215   6691   6661   6664     1  0.0000000  1.6024720  3
   3219   3220   3232   3244     1  0.0000000  0.6508444  3
   3219   3223   3235   3241     1  0.0000000  0.6508444  3
   3219   3226   3229   3238     1  0.0000000  0.6508444  3
   3220   3219   3223   3235     1  180.0000771  2.0083200  2
   3220   3219   3223   3235     1  0.0000000  1.2552000  3
   3220   3219   3226   3229     1  180.0000771  2.0083200  2
   3220   3219   3226   3229     1  0.0000000  1.2552000  3
   3220   3232   3244   6753     1  0.0000000  0.6508444  3
   3223   3219   3220   3232     1  180.0000771  2.0083200  2
   3223   3219   3220   3232     1  0.0000000  1.2552000  3
   3223   3219   3226   3229     1  180.0000771  2.0083200  2
   3223   3219   3226   3229     1  0.0000000  1.2552000  3
   3223   3235   3241   6722     1  0.0000000  0.6508444  3
   3226   3219   3220   3232     1  180.0000771  2.0083200  2
   3226   3219   3220   3232     1  0.0000000  1.2552000  3
   3226   3219   3223   3235     1  180.0000771  2.0083200  2
   3226   3219   3223   3235     1  0.0000000  1.2552000  3
   3226   3229   3238   3247     1  0.0000000  0.6508444  3
   3232   3244   6753   6723     1  180.0000771  0.4184000  2
   3232   3244   6753   6723     1  0.0000000  1.6024720  3
   3235   3241   6722   6692     1  180.0000771  0.4184000  2
   3235   3241   6722   6692     1  0.0000000  1.6024720  3
   3241   6722   6692   6695     1  180.0000771  0.4184000  2
   3241   6722   6692   6695     1  0.0000000  1.6024720  3
   3244   6753   6723   6726     1  180.0000771  0.4184000  2
   3244   6753   6723   6726     1  0.0000000  1.6024720  3
   3248   3249   3261   3273     1  0.0000000  0.6508444  3
   3248   3252   3264   3270     1  0.0000000  0.6508444  3
   3248   3255   3258   3267     1  0.0000000  0.6508444  3
   3249   3248   3252   3264     1  180.0000771  2.0083200  2
   3249   3248   3252   3264     1  0.0000000  1.2552000  3
   3249   3248   3255   3258     1  180.0000771  2.0083200  2
   3249   3248   3255   3258     1  0.0000000  1.2552000  3
   3249   3261   3273   6815     1  0.0000000  0.6508444  3
   3252   3248   3249   3261     1  180.0000771  2.0083200  2
   3252   3248   3249   3261     1  0.0000000  1.2552000  3
   3252   3248   3255   3258     1  180.0000771  2.0083200  2
   3252   3248   3255   3258     1  0.0000000  1.2552000  3
   3252   3264   3270   6784     1  0.0000000  0.6508444  3
   3255   3248   3249   3261     1  180.0000771  2.0083200  2
   3255   3248   3249   3261     1  0.0000000  1.2552000  3
   3255   3248   3252   3264     1  180.0000771  2.0083200  2
   3255   3248   3252   3264     1  0.0000000  1.2552000  3
   3255   3258   3267   3276     1  0.0000000  0.6508444  3
   3261   3273   6815   6785     1  180.0000771  0.4184000  2
   3261   3273   6815   6785     1  0.0000000  1.6024720  3
   3264   3270   6784   6754     1  180.0000771  0.4184000  2
   3264   3270   6784   6754     1  0.0000000  1.6024720  3
   3270   6784   6754   6757     1  180.0000771  0.4184000  2
   3270   6784   6754   6757     1  0.0000000  1.6024720  3
   3273   6815   6785   6788     1  180.0000771  0.4184000  2
   3273   6815   6785   6788     1  0.0000000  1.6024720  3
   3277   3278   3290   3302     1  0.0000000  0.6508444  3
   3277   3281   3293   3299     1  0.0000000  0.6508444  3
   3277   3284   3287   3296     1  0.0000000  0.6508444  3
   3278   3277   3281   3293     1  180.0000771  2.0083200  2
   3278   3277   3281   3293     1  0.0000000  1.2552000  3
   3278   3277   3284   3287     1  180.0000771  2.0083200  2
   3278   3277   3284   3287     1  0.0000000  1.2552000  3
   3278   3290   3302   6877     1  0.0000000  0.6508444  3
   3281   3277   3278   3290     1  180.0000771  2.0083200  2
   3281   3277   3278   3290     1  0.0000000  1.2552000  3
   3281   3277   3284   3287     1  180.0000771  2.0083200  2
   3281   3277   3284   3287     1  0.0000000  1.2552000  3
   3281   3293   3299   6846     1  0.0000000  0.6508444  3
   3284   3277   3278   3290     1  180.0000771  2.0083200  2
   3284   3277   3278   3290     1  0.0000000  1.2552000  3
   3284   3277   3281   3293     1  180.0000771  2.0083200  2
   3284   3277   3281   3293     1  0.0000000  1.2552000  3
   3284   3287   3296   3305     1  0.0000000  0.6508444  3
   3290   3302   6877   6847     1  180.0000771  0.4184000  2
   3290   3302   6877   6847     1  0.0000000  1.6024720  3
   3293   3299   6846   6816     1  180.0000771  0.4184000  2
   3293   3299   6846   6816     1  0.0000000  1.6024720  3
   3299   6846   6816   6819     1  180.0000771  0.4184000  2
   3299   6846   6816   6819     1  0.0000000  1.6024720  3
   3302   6877   6847   6850     1  180.0000771  0.4184000  2
   3302   6877   6847   6850     1  0.0000000  1.6024720  3
   3306   3307   3319   3331     1  0.0000000  0.6508444  3
   3306   3310   3322   3328     1  0.0000000  0.6508444  3
   3306   3313   3316   3325     1  0.0000000  0.6508444  3
   3307   3306   3310   3322     1  180.0000771  2.0083200  2
   3307   3306   3310   3322     1  0.0000000  1.2552000  3
   3307   3306   3313   3316     1  180.0000771  2.0083200  2
   3307   3306   3313   3316     1  0.0000000  1.2552000  3
   3307   3319   3331   6939     1  0.0000000  0.6508444  3
   3310   3306   3307   3319     1  180.0000771  2.0083200  2
   3310   3306   3307   3319     1  0.0000000  1.2552000  3
   3310   3306   3313   3316     1  180.0000771  2.0083200  2
   3310   3306   3313   3316     1  0.0000000  1.2552000  3
   3310   3322   3328   6908     1  0.0000000  0.6508444  3
   3313   3306   3307   3319     1  180.0000771  2.0083200  2
   3313   3306   3307   3319     1  0.0000000  1.2552000  3
   3313   3306   3310   3322     1  180.0000771  2.0083200  2
   3313   3306   3310   3322     1  0.0000000  1.2552000  3
   3313   3316   3325   3334     1  0.0000000  0.6508444  3
   3319   3331   6939   6909     1  180.0000771  0.4184000  2
   3319   3331   6939   6909     1  0.0000000  1.6024720  3
   3322   3328   6908   6878     1  180.0000771  0.4184000  2
   3322   3328   6908   6878     1  0.0000000  1.6024720  3
   3328   6908   6878   6881     1  180.0000771  0.4184000  2
   3328   6908   6878   6881     1  0.0000000  1.6024720  3
   3331   6939   6909   6912     1  180.0000771  0.4184000  2
   3331   6939   6909   6912     1  0.0000000  1.6024720  3
   3335   3336   3348   3360     1  0.0000000  0.6508444  3
   3335   3339   3351   3357     1  0.0000000  0.6508444  3
   3335   3342   3345   3354     1  0.0000000  0.6508444  3
   3336   3335   3339   3351     1  180.0000771  2.0083200  2
   3336   3335   3339   3351     1  0.0000000  1.2552000  3
   3336   3335   3342   3345     1  180.0000771  2.0083200  2
   3336   3335   3342   3345     1  0.0000000  1.2552000  3
   3336   3348   3360   7001     1  0.0000000  0.6508444  3
   3339   3335   3336   3348     1  180.0000771  2.0083200  2
   3339   3335   3336   3348     1  0.0000000  1.2552000  3
   3339   3335   3342   3345     1  180.0000771  2.0083200  2
   3339   3335   3342   3345     1  0.0000000  1.2552000  3
   3339   3351   3357   6970     1  0.0000000  0.6508444  3
   3342   3335   3336   3348     1  180.0000771  2.0083200  2
   3342   3335   3336   3348     1  0.0000000  1.2552000  3
   3342   3335   3339   3351     1  180.0000771  2.0083200  2
   3342   3335   3339   3351     1  0.0000000  1.2552000  3
   3342   3345   3354   3363     1  0.0000000  0.6508444  3
   3348   3360   7001   6971     1  180.0000771  0.4184000  2
   3348   3360   7001   6971     1  0.0000000  1.6024720  3
   3351   3357   6970   6940     1  180.0000771  0.4184000  2
   3351   3357   6970   6940     1  0.0000000  1.6024720  3
   3357   6970   6940   6943     1  180.0000771  0.4184000  2
   3357   6970   6940   6943     1  0.0000000  1.6024720  3
   3360   7001   6971   6974     1  180.0000771  0.4184000  2
   3360   7001   6971   6974     1  0.0000000  1.6024720  3
   3364   3365   3377   3389     1  0.0000000  0.6508444  3
   3364   3368   3380   3386     1  0.0000000  0.6508444  3
   3364   3371   3374   3383     1  0.0000000  0.6508444  3
   3365   3364   3368   3380     1  180.0000771  2.0083200  2
   3365   3364   3368   3380     1  0.0000000  1.2552000  3
   3365   3364   3371   3374     1  180.0000771  2.0083200  2
   3365   3364   3371   3374     1  0.0000000  1.2552000  3
   3365   3377   3389   7063     1  0.0000000  0.6508444  3
   3368   3364   3365   3377     1  180.0000771  2.0083200  2
   3368   3364   3365   3377     1  0.0000000  1.2552000  3
   3368   3364   3371   3374     1  180.0000771  2.0083200  2
   3368   3364   3371   3374     1  0.0000000  1.2552000  3
   3368   3380   3386   7032     1  0.0000000  0.6508444  3
   3371   3364   3365   3377     1  180.0000771  2.0083200  2
   3371   3364   3365   3377     1  0.0000000  1.2552000  3
   3371   3364   3368   3380     1  180.0000771  2.0083200  2
   3371   3364   3368   3380     1  0.0000000  1.2552000  3
   3371   3374   3383   3392     1  0.0000000  0.6508444  3
   3377   3389   7063   7033     1  180.0000771  0.4184000  2
   3377   3389   7063   7033     1  0.0000000  1.6024720  3
   3380   3386   7032   7002     1  180.0000771  0.4184000  2
   3380   3386   7032   7002     1  0.0000000  1.6024720  3
   3386   7032   7002   7005     1  180.0000771  0.4184000  2
   3386   7032   7002   7005     1  0.0000000  1.6024720  3
   3389   7063   7033   7036     1  180.0000771  0.4184000  2
   3389   7063   7033   7036     1  0.0000000  1.6024720  3
   3393   3394   3406   3418     1  0.0000000  0.6508444  3
   3393   3397   3409   3415     1  0.0000000  0.6508444  3
   3393   3400   3403   3412     1  0.0000000  0.6508444  3
   3394   3393   3397   3409     1  180.0000771  2.0083200  2
   3394   3393   3397   3409     1  0.0000000  1.2552000  3
   3394   3393   3400   3403     1  180.0000771  2.0083200  2
   3394   3393   3400   3403     1  0.0000000  1.2552000  3
   3394   3406   3418   7125     1  0.0000000  0.6508444  3
   3397   3393   3394   3406     1  180.0000771  2.0083200  2
   3397   3393   3394   3406     1  0.0000000  1.2552000  3
   3397   3393   3400   3403     1  180.0000771  2.0083200  2
   3397   3393   3400   3403     1  0.0000000  1.2552000  3
   3397   3409   3415   7094     1  0.0000000  0.6508444  3
   3400   3393   3394   3406     1  180.0000771  2.0083200  2
   3400   3393   3394   3406     1  0.0000000  1.2552000  3
   3400   3393   3397   3409     1  180.0000771  2.0083200  2
   3400   3393   3397   3409     1  0.0000000  1.2552000  3
   3400   3403   3412   3421     1  0.0000000  0.6508444  3
   3406   3418   7125   7095     1  180.0000771  0.4184000  2
   3406   3418   7125   7095     1  0.0000000  1.6024720  3
   3409   3415   7094   7064     1  180.0000771  0.4184000  2
   3409   3415   7094   7064     1  0.0000000  1.6024720  3
   3415   7094   7064   7067     1  180.0000771  0.4184000  2
   3415   7094   7064   7067     1  0.0000000  1.6024720  3
   3418   7125   7095   7098     1  180.0000771  0.4184000  2
   3418   7125   7095   7098     1  0.0000000  1.6024720  3
   3422   3423   3435   3447     1  0.0000000  0.6508444  3
   3422   3426   3438   3444     1  0.0000000  0.6508444  3
   3422   3429   3432   3441     1  0.0000000  0.6508444  3
   3423   3422   3426   3438     1  180.0000771  2.0083200  2
   3423   3422   3426   3438     1  0.0000000  1.2552000  3
   3423   3422   3429   3432     1  180.0000771  2.0083200  2
   3423   3422   3429   3432     1  0.0000000  1.2552000  3
   3423   3435   3447   7187     1  0.0000000  0.6508444  3
   3426   3422   3423   3435     1  180.0000771  2.0083200  2
   3426   3422   3423   3435     1  0.0000000  1.2552000  3
   3426   3422   3429   3432     1  180.0000771  2.0083200  2
   3426   3422   3429   3432     1  0.0000000  1.2552000  3
   3426   3438   3444   7156     1  0.0000000  0.6508444  3
   3429   3422   3423   3435     1  180.0000771  2.0083200  2
   3429   3422   3423   3435     1  0.0000000  1.2552000  3
   3429   3422   3426   3438     1  180.0000771  2.0083200  2
   3429   3422   3426   3438     1  0.0000000  1.2552000  3
   3429   3432   3441   3450     1  0.0000000  0.6508444  3
   3435   3447   7187   7157     1  180.0000771  0.4184000  2
   3435   3447   7187   7157     1  0.0000000  1.6024720  3
   3438   3444   7156   7126     1  180.0000771  0.4184000  2
   3438   3444   7156   7126     1  0.0000000  1.6024720  3
   3444   7156   7126   7129     1  180.0000771  0.4184000  2
   3444   7156   7126   7129     1  0.0000000  1.6024720  3
   3447   7187   7157   7160     1  180.0000771  0.4184000  2
   3447   7187   7157   7160     1  0.0000000  1.6024720  3
   3451   3452   3464   3476     1  0.0000000  0.6508444  3
   3451   3455   3467   3473     1  0.0000000  0.6508444  3
   3451   3458   3461   3470     1  0.0000000  0.6508444  3
   3452   3451   3455   3467     1  180.0000771  2.0083200  2
   3452   3451   3455   3467     1  0.0000000  1.2552000  3
   3452   3451   3458   3461     1  180.0000771  2.0083200  2
   3452   3451   3458   3461     1  0.0000000  1.2552000  3
   3452   3464   3476   7249     1  0.0000000  0.6508444  3
   3455   3451   3452   3464     1  180.0000771  2.0083200  2
   3455   3451   3452   3464     1  0.0000000  1.2552000  3
   3455   3451   3458   3461     1  180.0000771  2.0083200  2
   3455   3451   3458   3461     1  0.0000000  1.2552000  3
   3455   3467   3473   7218     1  0.0000000  0.6508444  3
   3458   3451   3452   3464     1  180.0000771  2.0083200  2
   3458   3451   3452   3464     1  0.0000000  1.2552000  3
   3458   3451   3455   3467     1  180.0000771  2.0083200  2
   3458   3451   3455   3467     1  0.0000000  1.2552000  3
   3458   3461   3470   3479     1  0.0000000  0.6508444  3
   3464   3476   7249   7219     1  180.0000771  0.4184000  2
   3464   3476   7249   7219     1  0.0000000  1.6024720  3
   3467   3473   7218   7188     1  180.0000771  0.4184000  2
   3467   3473   7218   7188     1  0.0000000  1.6024720  3
   3473   7218   7188   7191     1  180.0000771  0.4184000  2
   3473   7218   7188   7191     1  0.0000000  1.6024720  3
   3476   7249   7219   7222     1  180.0000771  0.4184000  2
   3476   7249   7219   7222     1  0.0000000  1.6024720  3
   3480   3481   3493   3505     1  0.0000000  0.6508444  3
   3480   3484   3496   3502     1  0.0000000  0.6508444  3
   3480   3487   3490   3499     1  0.0000000  0.6508444  3
   3481   3480   3484   3496     1  180.0000771  2.0083200  2
   3481   3480   3484   3496     1  0.0000000  1.2552000  3
   3481   3480   3487   3490     1  180.0000771  2.0083200  2
   3481   3480   3487   3490     1  0.0000000  1.2552000  3
   3481   3493   3505   7311     1  0.0000000  0.6508444  3
   3484   3480   3481   3493     1  180.0000771  2.0083200  2
   3484   3480   3481   3493     1  0.0000000  1.2552000  3
   3484   3480   3487   3490     1  180.0000771  2.0083200  2
   3484   3480   3487   3490     1  0.0000000  1.2552000  3
   3484   3496   3502   7280     1  0.0000000  0.6508444  3
   3487   3480   3481   3493     1  180.0000771  2.0083200  2
   3487   3480   3481   3493     1  0.0000000  1.2552000  3
   3487   3480   3484   3496     1  180.0000771  2.0083200  2
   3487   3480   3484   3496     1  0.0000000  1.2552000  3
   3487   3490   3499   3508     1  0.0000000  0.6508444  3
   3493   3505   7311   7281     1  180.0000771  0.4184000  2
   3493   3505   7311   7281     1  0.0000000  1.6024720  3
   3496   3502   7280   7250     1  180.0000771  0.4184000  2
   3496   3502   7280   7250     1  0.0000000  1.6024720  3
   3502   7280   7250   7253     1  180.0000771  0.4184000  2
   3502   7280   7250   7253     1  0.0000000  1.6024720  3
   3505   7311   7281   7284     1  180.0000771  0.4184000  2
   3505   7311   7281   7284     1  0.0000000  1.6024720  3
   3509   3510   3522   3534     1  0.0000000  0.6508444  3
   3509   3513   3525   3531     1  0.0000000  0.6508444  3
   3509   3516   3519   3528     1  0.0000000  0.6508444  3
   3510   3509   3513   3525     1  180.0000771  2.0083200  2
   3510   3509   3513   3525     1  0.0000000  1.2552000  3
   3510   3509   3516   3519     1  180.0000771  2.0083200  2
   3510   3509   3516   3519     1  0.0000000  1.2552000  3
   3510   3522   3534   7373     1  0.0000000  0.6508444  3
   3513   3509   3510   3522     1  180.0000771  2.0083200  2
   3513   3509   3510   3522     1  0.0000000  1.2552000  3
   3513   3509   3516   3519     1  180.0000771  2.0083200  2
   3513   3509   3516   3519     1  0.0000000  1.2552000  3
   3513   3525   3531   7342     1  0.0000000  0.6508444  3
   3516   3509   3510   3522     1  180.0000771  2.0083200  2
   3516   3509   3510   3522     1  0.0000000  1.2552000  3
   3516   3509   3513   3525     1  180.0000771  2.0083200  2
   3516   3509   3513   3525     1  0.0000000  1.2552000  3
   3516   3519   3528   3537     1  0.0000000  0.6508444  3
   3522   3534   7373   7343     1  180.0000771  0.4184000  2
   3522   3534   7373   7343     1  0.0000000  1.6024720  3
   3525   3531   7342   7312     1  180.0000771  0.4184000  2
   3525   3531   7342   7312     1  0.0000000  1.6024720  3
   3531   7342   7312   7315     1  180.0000771  0.4184000  2
   3531   7342   7312   7315     1  0.0000000  1.6024720  3
   3534   7373   7343   7346     1  180.0000771  0.4184000  2
   3534   7373   7343   7346     1  0.0000000  1.6024720  3
   3538   3539   3551   3563     1  0.0000000  0.6508444  3
   3538   3542   3554   3560     1  0.0000000  0.6508444  3
   3538   3545   3548   3557     1  0.0000000  0.6508444  3
   3539   3538   3542   3554     1  180.0000771  2.0083200  2
   3539   3538   3542   3554     1  0.0000000  1.2552000  3
   3539   3538   3545   3548     1  180.0000771  2.0083200  2
   3539   3538   3545   3548     1  0.0000000  1.2552000  3
   3539   3551   3563   7435     1  0.0000000  0.6508444  3
   3542   3538   3539   3551     1  180.0000771  2.0083200  2
   3542   3538   3539   3551     1  0.0000000  1.2552000  3
   3542   3538   3545   3548     1  180.0000771  2.0083200  2
   3542   3538   3545   3548     1  0.0000000  1.2552000  3
   3542   3554   3560   7404     1  0.0000000  0.6508444  3
   3545   3538   3539   3551     1  180.0000771  2.0083200  2
   3545   3538   3539   3551     1  0.0000000  1.2552000  3
   3545   3538   3542   3554     1  180.0000771  2.0083200  2
   3545   3538   3542   3554     1  0.0000000  1.2552000  3
   3545   3548   3557   3566     1  0.0000000  0.6508444  3
   3551   3563   7435   7405     1  180.0000771  0.4184000  2
   3551   3563   7435   7405     1  0.0000000  1.6024720  3
   3554   3560   7404   7374     1  180.0000771  0.4184000  2
   3554   3560   7404   7374     1  0.0000000  1.6024720  3
   3560   7404   7374   7377     1  180.0000771  0.4184000  2
   3560   7404   7374   7377     1  0.0000000  1.6024720  3
   3563   7435   7405   7408     1  180.0000771  0.4184000  2
   3563   7435   7405   7408     1  0.0000000  1.6024720  3
   3567   3568   3580   3592     1  0.0000000  0.6508444  3
   3567   3571   3583   3589     1  0.0000000  0.6508444  3
   3567   3574   3577   3586     1  0.0000000  0.6508444  3
   3568   3567   3571   3583     1  180.0000771  2.0083200  2
   3568   3567   3571   3583     1  0.0000000  1.2552000  3
   3568   3567   3574   3577     1  180.0000771  2.0083200  2
   3568   3567   3574   3577     1  0.0000000  1.2552000  3
   3568   3580   3592   7497     1  0.0000000  0.6508444  3
   3571   3567   3568   3580     1  180.0000771  2.0083200  2
   3571   3567   3568   3580     1  0.0000000  1.2552000  3
   3571   3567   3574   3577     1  180.0000771  2.0083200  2
   3571   3567   3574   3577     1  0.0000000  1.2552000  3
   3571   3583   3589   7466     1  0.0000000  0.6508444  3
   3574   3567   3568   3580     1  180.0000771  2.0083200  2
   3574   3567   3568   3580     1  0.0000000  1.2552000  3
   3574   3567   3571   3583     1  180.0000771  2.0083200  2
   3574   3567   3571   3583     1  0.0000000  1.2552000  3
   3574   3577   3586   3595     1  0.0000000  0.6508444  3
   3580   3592   7497   7467     1  180.0000771  0.4184000  2
   3580   3592   7497   7467     1  0.0000000  1.6024720  3
   3583   3589   7466   7436     1  180.0000771  0.4184000  2
   3583   3589   7466   7436     1  0.0000000  1.6024720  3
   3589   7466   7436   7439     1  180.0000771  0.4184000  2
   3589   7466   7436   7439     1  0.0000000  1.6024720  3
   3592   7497   7467   7470     1  180.0000771  0.4184000  2
   3592   7497   7467   7470     1  0.0000000  1.6024720  3
   3596   3597   3609   3621     1  0.0000000  0.6508444  3
   3596   3600   3612   3618     1  0.0000000  0.6508444  3
   3596   3603   3606   3615     1  0.0000000  0.6508444  3
   3597   3596   3600   3612     1  180.0000771  2.0083200  2
   3597   3596   3600   3612     1  0.0000000  1.2552000  3
   3597   3596   3603   3606     1  180.0000771  2.0083200  2
   3597   3596   3603   3606     1  0.0000000  1.2552000  3
   3597   3609   3621   7559     1  0.0000000  0.6508444  3
   3600   3596   3597   3609     1  180.0000771  2.0083200  2
   3600   3596   3597   3609     1  0.0000000  1.2552000  3
   3600   3596   3603   3606     1  180.0000771  2.0083200  2
   3600   3596   3603   3606     1  0.0000000  1.2552000  3
   3600   3612   3618   7528     1  0.0000000  0.6508444  3
   3603   3596   3597   3609     1  180.0000771  2.0083200  2
   3603   3596   3597   3609     1  0.0000000  1.2552000  3
   3603   3596   3600   3612     1  180.0000771  2.0083200  2
   3603   3596   3600   3612     1  0.0000000  1.2552000  3
   3603   3606   3615   3624     1  0.0000000  0.6508444  3
   3609   3621   7559   7529     1  180.0000771  0.4184000  2
   3609   3621   7559   7529     1  0.0000000  1.6024720  3
   3612   3618   7528   7498     1  180.0000771  0.4184000  2
   3612   3618   7528   7498     1  0.0000000  1.6024720  3
   3618   7528   7498   7501     1  180.0000771  0.4184000  2
   3618   7528   7498   7501     1  0.0000000  1.6024720  3
   3621   7559   7529   7532     1  180.0000771  0.4184000  2
   3621   7559   7529   7532     1  0.0000000  1.6024720  3
   3625   3626   3638   3650     1  0.0000000  0.6508444  3
   3625   3629   3641   3647     1  0.0000000  0.6508444  3
   3625   3632   3635   3644     1  0.0000000  0.6508444  3
   3626   3625   3629   3641     1  180.0000771  2.0083200  2
   3626   3625   3629   3641     1  0.0000000  1.2552000  3
   3626   3625   3632   3635     1  180.0000771  2.0083200  2
   3626   3625   3632   3635     1  0.0000000  1.2552000  3
   3626   3638   3650   7621     1  0.0000000  0.6508444  3
   3629   3625   3626   3638     1  180.0000771  2.0083200  2
   3629   3625   3626   3638     1  0.0000000  1.2552000  3
   3629   3625   3632   3635     1  180.0000771  2.0083200  2
   3629   3625   3632   3635     1  0.0000000  1.2552000  3
   3629   3641   3647   7590     1  0.0000000  0.6508444  3
   3632   3625   3626   3638     1  180.0000771  2.0083200  2
   3632   3625   3626   3638     1  0.0000000  1.2552000  3
   3632   3625   3629   3641     1  180.0000771  2.0083200  2
   3632   3625   3629   3641     1  0.0000000  1.2552000  3
   3632   3635   3644   3653     1  0.0000000  0.6508444  3
   3638   3650   7621   7591     1  180.0000771  0.4184000  2
   3638   3650   7621   7591     1  0.0000000  1.6024720  3
   3641   3647   7590   7560     1  180.0000771  0.4184000  2
   3641   3647   7590   7560     1  0.0000000  1.6024720  3
   3647   7590   7560   7563     1  180.0000771  0.4184000  2
   3647   7590   7560   7563     1  0.0000000  1.6024720  3
   3650   7621   7591   7594     1  180.0000771  0.4184000  2
   3650   7621   7591   7594     1  0.0000000  1.6024720  3
   3654   3657   3660   3663     1  0.0000000  0.6508444  3
   3657   3660   3663   3664     1  180.0000771  2.0083200  2
   3657   3660   3663   3664     1  0.0000000  1.2552000  3
   3657   3660   3663   3674     1  180.0000771  2.0083200  2
   3657   3660   3663   3674     1  0.0000000  1.2552000  3
   3660   3657   3654   3684     1  0.0000000  0.6508444  3
   3660   3663   3664   3667     1  180.0000771  2.0083200  2
   3660   3663   3664   3667     1  0.0000000  1.2552000  3
   3660   3663   3674   3677     1  180.0000771  2.0083200  2
   3660   3663   3674   3677     1  0.0000000  1.2552000  3
   3663   3664   3667   3670     1  0.0000000  0.6508444  3
   3663   3674   3677   3680     1  0.0000000  0.6508444  3
   3664   3663   3674   3677     1  180.0000771  2.0083200  2
   3664   3663   3674   3677     1  0.0000000  1.2552000  3
   3664   3667   3670   3671     1  180.0000771  0.0000000  2
   3664   3667   3670   3672     1  180.0000771  0.0000000  2
   3667   3664   3663   3674     1  180.0000771  2.0083200  2
   3667   3664   3663   3674     1  0.0000000  1.2552000  3
   3674   3677   3680   3681     1  180.0000771  0.0000000  2
   3674   3677   3680   3682     1  180.0000771  0.0000000  2
   3685   3688   3691   3694     1  0.0000000  0.6508444  3
   3688   3691   3694   3695     1  180.0000771  2.0083200  2
   3688   3691   3694   3695     1  0.0000000  1.2552000  3
   3688   3691   3694   3705     1  180.0000771  2.0083200  2
   3688   3691   3694   3705     1  0.0000000  1.2552000  3
   3691   3694   3695   3698     1  180.0000771  2.0083200  2
   3691   3694   3695   3698     1  0.0000000  1.2552000  3
   3691   3694   3705   3708     1  180.0000771  2.0083200  2
   3691   3694   3705   3708     1  0.0000000  1.2552000  3
   3691   3688   3685   3715     1  0.0000000  0.6508444  3
   3694   3695   3698   3701     1  0.0000000  0.6508444  3
   3694   3705   3708   3711     1  0.0000000  0.6508444  3
   3695   3698   3701   3702     1  180.0000771  0.0000000  2
   3695   3698   3701   3703     1  180.0000771  0.0000000  2
   3695   3694   3705   3708     1  180.0000771  2.0083200  2
   3695   3694   3705   3708     1  0.0000000  1.2552000  3
   3698   3695   3694   3705     1  180.0000771  2.0083200  2
   3698   3695   3694   3705     1  0.0000000  1.2552000  3
   3705   3708   3711   3712     1  180.0000771  0.0000000  2
   3705   3708   3711   3713     1  180.0000771  0.0000000  2
   3716   3719   3722   3725     1  0.0000000  0.6508444  3
   3719   3722   3725   3726     1  180.0000771  2.0083200  2
   3719   3722   3725   3726     1  0.0000000  1.2552000  3
   3719   3722   3725   3736     1  180.0000771  2.0083200  2
   3719   3722   3725   3736     1  0.0000000  1.2552000  3
   3722   3719   3716   3746     1  0.0000000  0.6508444  3
   3722   3725   3726   3729     1  180.0000771  2.0083200  2
   3722   3725   3726   3729     1  0.0000000  1.2552000  3
   3722   3725   3736   3739     1  180.0000771  2.0083200  2
   3722   3725   3736   3739     1  0.0000000  1.2552000  3
   3725   3726   3729   3732     1  0.0000000  0.6508444  3
   3725   3736   3739   3742     1  0.0000000  0.6508444  3
   3726   3725   3736   3739     1  180.0000771  2.0083200  2
   3726   3725   3736   3739     1  0.0000000  1.2552000  3
   3726   3729   3732   3733     1  180.0000771  0.0000000  2
   3726   3729   3732   3734     1  180.0000771  0.0000000  2
   3729   3726   3725   3736     1  180.0000771  2.0083200  2
   3729   3726   3725   3736     1  0.0000000  1.2552000  3
   3736   3739   3742   3743     1  180.0000771  0.0000000  2
   3736   3739   3742   3744     1  180.0000771  0.0000000  2
   3747   3750   3753   3756     1  0.0000000  0.6508444  3
   3750   3753   3756   3757     1  180.0000771  2.0083200  2
   3750   3753   3756   3757     1  0.0000000  1.2552000  3
   3750   3753   3756   3767     1  180.0000771  2.0083200  2
   3750   3753   3756   3767     1  0.0000000  1.2552000  3
   3753   3756   3757   3760     1  180.0000771  2.0083200  2
   3753   3756   3757   3760     1  0.0000000  1.2552000  3
   3753   3756   3767   3770     1  180.0000771  2.0083200  2
   3753   3756   3767   3770     1  0.0000000  1.2552000  3
   3753   3750   3747   3777     1  0.0000000  0.6508444  3
   3756   3757   3760   3763     1  0.0000000  0.6508444  3
   3756   3767   3770   3773     1  0.0000000  0.6508444  3
   3757   3760   3763   3764     1  180.0000771  0.0000000  2
   3757   3760   3763   3765     1  180.0000771  0.0000000  2
   3757   3756   3767   3770     1  180.0000771  2.0083200  2
   3757   3756   3767   3770     1  0.0000000  1.2552000  3
   3760   3757   3756   3767     1  180.0000771  2.0083200  2
   3760   3757   3756   3767     1  0.0000000  1.2552000  3
   3767   3770   3773   3774     1  180.0000771  0.0000000  2
   3767   3770   3773   3775     1  180.0000771  0.0000000  2
   3778   3781   3784   3787     1  0.0000000  0.6508444  3
   3781   3784   3787   3788     1  180.0000771  2.0083200  2
   3781   3784   3787   3788     1  0.0000000  1.2552000  3
   3781   3784   3787   3798     1  180.0000771  2.0083200  2
   3781   3784   3787   3798     1  0.0000000  1.2552000  3
   3784   3781   3778   3808     1  0.0000000  0.6508444  3
   3784   3787   3788   3791     1  180.0000771  2.0083200  2
   3784   3787   3788   3791     1  0.0000000  1.2552000  3
   3784   3787   3798   3801     1  180.0000771  2.0083200  2
   3784   3787   3798   3801     1  0.0000000  1.2552000  3
   3787   3788   3791   3794     1  0.0000000  0.6508444  3
   3787   3798   3801   3804     1  0.0000000  0.6508444  3
   3788   3787   3798   3801     1  180.0000771  2.0083200  2
   3788   3787   3798   3801     1  0.0000000  1.2552000  3
   3788   3791   3794   3795     1  180.0000771  0.0000000  2
   3788   3791   3794   3796     1  180.0000771  0.0000000  2
   3791   3788   3787   3798     1  180.0000771  2.0083200  2
   3791   3788   3787   3798     1  0.0000000  1.2552000  3
   3798   3801   3804   3805     1  180.0000771  0.0000000  2
   3798   3801   3804   3806     1  180.0000771  0.0000000  2
   3809   3812   3815   3818     1  0.0000000  0.6508444  3
   3812   3815   3818   3819     1  180.0000771  2.0083200  2
   3812   3815   3818   3819     1  0.0000000  1.2552000  3
   3812   3815   3818   3829     1  180.0000771  2.0083200  2
   3812   3815   3818   3829     1  0.0000000  1.2552000  3
   3815   3818   3819   3822     1  180.0000771  2.0083200  2
   3815   3818   3819   3822     1  0.0000000  1.2552000  3
   3815   3818   3829   3832     1  180.0000771  2.0083200  2
   3815   3818   3829   3832     1  0.0000000  1.2552000  3
   3815   3812   3809   3839     1  0.0000000  0.6508444  3
   3818   3819   3822   3825     1  0.0000000  0.6508444  3
   3818   3829   3832   3835     1  0.0000000  0.6508444  3
   3819   3822   3825   3826     1  180.0000771  0.0000000  2
   3819   3822   3825   3827     1  180.0000771  0.0000000  2
   3819   3818   3829   3832     1  180.0000771  2.0083200  2
   3819   3818   3829   3832     1  0.0000000  1.2552000  3
   3822   3819   3818   3829     1  180.0000771  2.0083200  2
   3822   3819   3818   3829     1  0.0000000  1.2552000  3
   3829   3832   3835   3836     1  180.0000771  0.0000000  2
   3829   3832   3835   3837     1  180.0000771  0.0000000  2
   3840   3843   3846   3849     1  0.0000000  0.6508444  3
   3843   3846   3849   3850     1  180.0000771  2.0083200  2
   3843   3846   3849   3850     1  0.0000000  1.2552000  3
   3843   3846   3849   3860     1  180.0000771  2.0083200  2
   3843   3846   3849   3860     1  0.0000000  1.2552000  3
   3846   3843   3840   3870     1  0.0000000  0.6508444  3
   3846   3849   3850   3853     1  180.0000771  2.0083200  2
   3846   3849   3850   3853     1  0.0000000  1.2552000  3
   3846   3849   3860   3863     1  180.0000771  2.0083200  2
   3846   3849   3860   3863     1  0.0000000  1.2552000  3
   3849   3850   3853   3856     1  0.0000000  0.6508444  3
   3849   3860   3863   3866     1  0.0000000  0.6508444  3
   3850   3849   3860   3863     1  180.0000771  2.0083200  2
   3850   3849   3860   3863     1  0.0000000  1.2552000  3
   3850   3853   3856   3857     1  180.0000771  0.0000000  2
   3850   3853   3856   3858     1  180.0000771  0.0000000  2
   3853   3850   3849   3860     1  180.0000771  2.0083200  2
   3853   3850   3849   3860     1  0.0000000  1.2552000  3
   3860   3863   3866   3867     1  180.0000771  0.0000000  2
   3860   3863   3866   3868     1  180.0000771  0.0000000  2
   3871   3874   3877   3880     1  0.0000000  0.6508444  3
   3874   3877   3880   3881     1  180.0000771  2.0083200  2
   3874   3877   3880   3881     1  0.0000000  1.2552000  3
   3874   3877   3880   3891     1  180.0000771  2.0083200  2
   3874   3877   3880   3891     1  0.0000000  1.2552000  3
   3877   3880   3881   3884     1  180.0000771  2.0083200  2
   3877   3880   3881   3884     1  0.0000000  1.2552000  3
   3877   3880   3891   3894     1  180.0000771  2.0083200  2
   3877   3880   3891   3894     1  0.0000000  1.2552000  3
   3877   3874   3871   3901     1  0.0000000  0.6508444  3
   3880   3881   3884   3887     1  0.0000000  0.6508444  3
   3880   3891   3894   3897     1  0.0000000  0.6508444  3
   3881   3884   3887   3888     1  180.0000771  0.0000000  2
   3881   3884   3887   3889     1  180.0000771  0.0000000  2
   3881   3880   3891   3894     1  180.0000771  2.0083200  2
   3881   3880   3891   3894     1  0.0000000  1.2552000  3
   3884   3881   3880   3891     1  180.0000771  2.0083200  2
   3884   3881   3880   3891     1  0.0000000  1.2552000  3
   3891   3894   3897   3898     1  180.0000771  0.0000000  2
   3891   3894   3897   3899     1  180.0000771  0.0000000  2
   3902   3905   3908   3911     1  0.0000000  0.6508444  3
   3905   3908   3911   3912     1  180.0000771  2.0083200  2
   3905   3908   3911   3912     1  0.0000000  1.2552000  3
   3905   3908   3911   3922     1  180.0000771  2.0083200  2
   3905   3908   3911   3922     1  0.0000000  1.2552000  3
   3908   3905   3902   3932     1  0.0000000  0.6508444  3
   3908   3911   3912   3915     1  180.0000771  2.0083200  2
   3908   3911   3912   3915     1  0.0000000  1.2552000  3
   3908   3911   3922   3925     1  180.0000771  2.0083200  2
   3908   3911   3922   3925     1  0.0000000  1.2552000  3
   3911   3912   3915   3918     1  0.0000000  0.6508444  3
   3911   3922   3925   3928     1  0.0000000  0.6508444  3
   3912   3911   3922   3925     1  180.0000771  2.0083200  2
   3912   3911   3922   3925     1  0.0000000  1.2552000  3
   3912   3915   3918   3919     1  180.0000771  0.0000000  2
   3912   3915   3918   3920     1  180.0000771  0.0000000  2
   3915   3912   3911   3922     1  180.0000771  2.0083200  2
   3915   3912   3911   3922     1  0.0000000  1.2552000  3
   3922   3925   3928   3929     1  180.0000771  0.0000000  2
   3922   3925   3928   3930     1  180.0000771  0.0000000  2
   3933   3936   3939   3942     1  0.0000000  0.6508444  3
   3936   3939   3942   3943     1  180.0000771  2.0083200  2
   3936   3939   3942   3943     1  0.0000000  1.2552000  3
   3936   3939   3942   3953     1  180.0000771  2.0083200  2
   3936   3939   3942   3953     1  0.0000000  1.2552000  3
   3939   3942   3943   3946     1  180.0000771  2.0083200  2
   3939   3942   3943   3946     1  0.0000000  1.2552000  3
   3939   3942   3953   3956     1  180.0000771  2.0083200  2
   3939   3942   3953   3956     1  0.0000000  1.2552000  3
   3939   3936   3933   3963     1  0.0000000  0.6508444  3
   3942   3943   3946   3949     1  0.0000000  0.6508444  3
   3942   3953   3956   3959     1  0.0000000  0.6508444  3
   3943   3946   3949   3950     1  180.0000771  0.0000000  2
   3943   3946   3949   3951     1  180.0000771  0.0000000  2
   3943   3942   3953   3956     1  180.0000771  2.0083200  2
   3943   3942   3953   3956     1  0.0000000  1.2552000  3
   3946   3943   3942   3953     1  180.0000771  2.0083200  2
   3946   3943   3942   3953     1  0.0000000  1.2552000  3
   3953   3956   3959   3960     1  180.0000771  0.0000000  2
   3953   3956   3959   3961     1  180.0000771  0.0000000  2
   3964   3967   3970   3973     1  0.0000000  0.6508444  3
   3967   3970   3973   3974     1  180.0000771  2.0083200  2
   3967   3970   3973   3974     1  0.0000000  1.2552000  3
   3967   3970   3973   3984     1  180.0000771  2.0083200  2
   3967   3970   3973   3984     1  0.0000000  1.2552000  3
   3970   3967   3964   3994     1  0.0000000  0.6508444  3
   3970   3973   3974   3977     1  180.0000771  2.0083200  2
   3970   3973   3974   3977     1  0.0000000  1.2552000  3
   3970   3973   3984   3987     1  180.0000771  2.0083200  2
   3970   3973   3984   3987     1  0.0000000  1.2552000  3
   3973   3974   3977   3980     1  0.0000000  0.6508444  3
   3973   3984   3987   3990     1  0.0000000  0.6508444  3
   3974   3973   3984   3987     1  180.0000771  2.0083200  2
   3974   3973   3984   3987     1  0.0000000  1.2552000  3
   3974   3977   3980   3981     1  180.0000771  0.0000000  2
   3974   3977   3980   3982     1  180.0000771  0.0000000  2
   3977   3974   3973   3984     1  180.0000771  2.0083200  2
   3977   3974   3973   3984     1  0.0000000  1.2552000  3
   3984   3987   3990   3991     1  180.0000771  0.0000000  2
   3984   3987   3990   3992     1  180.0000771  0.0000000  2
   3995   3998   4001   4004     1  0.0000000  0.6508444  3
   3998   4001   4004   4005     1  180.0000771  2.0083200  2
   3998   4001   4004   4005     1  0.0000000  1.2552000  3
   3998   4001   4004   4015     1  180.0000771  2.0083200  2
   3998   4001   4004   4015     1  0.0000000  1.2552000  3
   4001   4004   4005   4008     1  180.0000771  2.0083200  2
   4001   4004   4005   4008     1  0.0000000  1.2552000  3
   4001   4004   4015   4018     1  180.0000771  2.0083200  2
   4001   4004   4015   4018     1  0.0000000  1.2552000  3
   4001   3998   3995   4025     1  0.0000000  0.6508444  3
   4004   4005   4008   4011     1  0.0000000  0.6508444  3
   4004   4015   4018   4021     1  0.0000000  0.6508444  3
   4005   4008   4011   4012     1  180.0000771  0.0000000  2
   4005   4008   4011   4013     1  180.0000771  0.0000000  2
   4005   4004   4015   4018     1  180.0000771  2.0083200  2
   4005   4004   4015   4018     1  0.0000000  1.2552000  3
   4008   4005   4004   4015     1  180.0000771  2.0083200  2
   4008   4005   4004   4015     1  0.0000000  1.2552000  3
   4015   4018   4021   4022     1  180.0000771  0.0000000  2
   4015   4018   4021   4023     1  180.0000771  0.0000000  2
   4026   4029   4032   4035     1  0.0000000  0.6508444  3
   4029   4032   4035   4036     1  180.0000771  2.0083200  2
   4029   4032   4035   4036     1  0.0000000  1.2552000  3
   4029   4032   4035   4046     1  180.0000771  2.0083200  2
   4029   4032   4035   4046     1  0.0000000  1.2552000  3
   4032   4029   4026   4056     1  0.0000000  0.6508444  3
   4032   4035   4036   4039     1  180.0000771  2.0083200  2
   4032   4035   4036   4039     1  0.0000000  1.2552000  3
   4032   4035   4046   4049     1  180.0000771  2.0083200  2
   4032   4035   4046   4049     1  0.0000000  1.2552000  3
   4035   4036   4039   4042     1  0.0000000  0.6508444  3
   4035   4046   4049   4052     1  0.0000000  0.6508444  3
   4036   4035   4046   4049     1  180.0000771  2.0083200  2
   4036   4035   4046   4049     1  0.0000000  1.2552000  3
   4036   4039   4042   4043     1  180.0000771  0.0000000  2
   4036   4039   4042   4044     1  180.0000771  0.0000000  2
   4039   4036   4035   4046     1  180.0000771  2.0083200  2
   4039   4036   4035   4046     1  0.0000000  1.2552000  3
   4046   4049   4052   4053     1  180.0000771  0.0000000  2
   4046   4049   4052   4054     1  180.0000771  0.0000000  2
   4057   4060   4063   4066     1  0.0000000  0.6508444  3
   4060   4063   4066   4067     1  180.0000771  2.0083200  2
   4060   4063   4066   4067     1  0.0000000  1.2552000  3
   4060   4063   4066   4077     1  180.0000771  2.0083200  2
   4060   4063   4066   4077     1  0.0000000  1.2552000  3
   4063   4066   4067   4070     1  180.0000771  2.0083200  2
   4063   4066   4067   4070     1  0.0000000  1.2552000  3
   4063   4066   4077   4080     1  180.0000771  2.0083200  2
   4063   4066   4077   4080     1  0.0000000  1.2552000  3
   4063   4060   4057   4087     1  0.0000000  0.6508444  3
   4066   4067   4070   4073     1  0.0000000  0.6508444  3
   4066   4077   4080   4083     1  0.0000000  0.6508444  3
   4067   4070   4073   4074     1  180.0000771  0.0000000  2
   4067   4070   4073   4075     1  180.0000771  0.0000000  2
   4067   4066   4077   4080     1  180.0000771  2.0083200  2
   4067   4066   4077   4080     1  0.0000000  1.2552000  3
   4070   4067   4066   4077     1  180.0000771  2.0083200  2
   4070   4067   4066   4077     1  0.0000000  1.2552000  3
   4077   4080   4083   4084     1  180.0000771  0.0000000  2
   4077   4080   4083   4085     1  180.0000771  0.0000000  2
   4088   4091   4094   4097     1  0.0000000  0.6508444  3
   4091   4094   4097   4098     1  180.0000771  2.0083200  2
   4091   4094   4097   4098     1  0.0000000  1.2552000  3
   4091   4094   4097   4108     1  180.0000771  2.0083200  2
   4091   4094   4097   4108     1  0.0000000  1.2552000  3
   4094   4091   4088   4118     1  0.0000000  0.6508444  3
   4094   4097   4098   4101     1  180.0000771  2.0083200  2
   4094   4097   4098   4101     1  0.0000000  1.2552000  3
   4094   4097   4108   4111     1  180.0000771  2.0083200  2
   4094   4097   4108   4111     1  0.0000000  1.2552000  3
   4097   4098   4101   4104     1  0.0000000  0.6508444  3
   4097   4108   4111   4114     1  0.0000000  0.6508444  3
   4098   4097   4108   4111     1  180.0000771  2.0083200  2
   4098   4097   4108   4111     1  0.0000000  1.2552000  3
   4098   4101   4104   4105     1  180.0000771  0.0000000  2
   4098   4101   4104   4106     1  180.0000771  0.0000000  2
   4101   4098   4097   4108     1  180.0000771  2.0083200  2
   4101   4098   4097   4108     1  0.0000000  1.2552000  3
   4108   4111   4114   4115     1  180.0000771  0.0000000  2
   4108   4111   4114   4116     1  180.0000771  0.0000000  2
   4119   4122   4125   4128     1  0.0000000  0.6508444  3
   4122   4125   4128   4129     1  180.0000771  2.0083200  2
   4122   4125   4128   4129     1  0.0000000  1.2552000  3
   4122   4125   4128   4139     1  180.0000771  2.0083200  2
   4122   4125   4128   4139     1  0.0000000  1.2552000  3
   4125   4128   4129   4132     1  180.0000771  2.0083200  2
   4125   4128   4129   4132     1  0.0000000  1.2552000  3
   4125   4128   4139   4142     1  180.0000771  2.0083200  2
   4125   4128   4139   4142     1  0.0000000  1.2552000  3
   4125   4122   4119   4149     1  0.0000000  0.6508444  3
   4128   4129   4132   4135     1  0.0000000  0.6508444  3
   4128   4139   4142   4145     1  0.0000000  0.6508444  3
   4129   4132   4135   4136     1  180.0000771  0.0000000  2
   4129   4132   4135   4137     1  180.0000771  0.0000000  2
   4129   4128   4139   4142     1  180.0000771  2.0083200  2
   4129   4128   4139   4142     1  0.0000000  1.2552000  3
   4132   4129   4128   4139     1  180.0000771  2.0083200  2
   4132   4129   4128   4139     1  0.0000000  1.2552000  3
   4139   4142   4145   4146     1  180.0000771  0.0000000  2
   4139   4142   4145   4147     1  180.0000771  0.0000000  2
   4150   4153   4156   4159     1  0.0000000  0.6508444  3
   4153   4156   4159   4160     1  180.0000771  2.0083200  2
   4153   4156   4159   4160     1  0.0000000  1.2552000  3
   4153   4156   4159   4170     1  180.0000771  2.0083200  2
   4153   4156   4159   4170     1  0.0000000  1.2552000  3
   4156   4153   4150   4180     1  0.0000000  0.6508444  3
   4156   4159   4160   4163     1  180.0000771  2.0083200  2
   4156   4159   4160   4163     1  0.0000000  1.2552000  3
   4156   4159   4170   4173     1  180.0000771  2.0083200  2
   4156   4159   4170   4173     1  0.0000000  1.2552000  3
   4159   4160   4163   4166     1  0.0000000  0.6508444  3
   4159   4170   4173   4176     1  0.0000000  0.6508444  3
   4160   4159   4170   4173     1  180.0000771  2.0083200  2
   4160   4159   4170   4173     1  0.0000000  1.2552000  3
   4160   4163   4166   4167     1  180.0000771  0.0000000  2
   4160   4163   4166   4168     1  180.0000771  0.0000000  2
   4163   4160   4159   4170     1  180.0000771  2.0083200  2
   4163   4160   4159   4170     1  0.0000000  1.2552000  3
   4170   4173   4176   4177     1  180.0000771  0.0000000  2
   4170   4173   4176   4178     1  180.0000771  0.0000000  2
   4181   4184   4187   4190     1  0.0000000  0.6508444  3
   4184   4187   4190   4191     1  180.0000771  2.0083200  2
   4184   4187   4190   4191     1  0.0000000  1.2552000  3
   4184   4187   4190   4201     1  180.0000771  2.0083200  2
   4184   4187   4190   4201     1  0.0000000  1.2552000  3
   4187   4190   4191   4194     1  180.0000771  2.0083200  2
   4187   4190   4191   4194     1  0.0000000  1.2552000  3
   4187   4190   4201   4204     1  180.0000771  2.0083200  2
   4187   4190   4201   4204     1  0.0000000  1.2552000  3
   4187   4184   4181   4211     1  0.0000000  0.6508444  3
   4190   4191   4194   4197     1  0.0000000  0.6508444  3
   4190   4201   4204   4207     1  0.0000000  0.6508444  3
   4191   4194   4197   4198     1  180.0000771  0.0000000  2
   4191   4194   4197   4199     1  180.0000771  0.0000000  2
   4191   4190   4201   4204     1  180.0000771  2.0083200  2
   4191   4190   4201   4204     1  0.0000000  1.2552000  3
   4194   4191   4190   4201     1  180.0000771  2.0083200  2
   4194   4191   4190   4201     1  0.0000000  1.2552000  3
   4201   4204   4207   4208     1  180.0000771  0.0000000  2
   4201   4204   4207   4209     1  180.0000771  0.0000000  2
   4212   4215   4218   4221     1  0.0000000  0.6508444  3
   4215   4218   4221   4222     1  180.0000771  2.0083200  2
   4215   4218   4221   4222     1  0.0000000  1.2552000  3
   4215   4218   4221   4232     1  180.0000771  2.0083200  2
   4215   4218   4221   4232     1  0.0000000  1.2552000  3
   4218   4215   4212   4242     1  0.0000000  0.6508444  3
   4218   4221   4222   4225     1  180.0000771  2.0083200  2
   4218   4221   4222   4225     1  0.0000000  1.2552000  3
   4218   4221   4232   4235     1  180.0000771  2.0083200  2
   4218   4221   4232   4235     1  0.0000000  1.2552000  3
   4221   4222   4225   4228     1  0.0000000  0.6508444  3
   4221   4232   4235   4238     1  0.0000000  0.6508444  3
   4222   4221   4232   4235     1  180.0000771  2.0083200  2
   4222   4221   4232   4235     1  0.0000000  1.2552000  3
   4222   4225   4228   4229     1  180.0000771  0.0000000  2
   4222   4225   4228   4230     1  180.0000771  0.0000000  2
   4225   4222   4221   4232     1  180.0000771  2.0083200  2
   4225   4222   4221   4232     1  0.0000000  1.2552000  3
   4232   4235   4238   4239     1  180.0000771  0.0000000  2
   4232   4235   4238   4240     1  180.0000771  0.0000000  2
   4243   4246   4249   4252     1  0.0000000  0.6508444  3
   4246   4249   4252   4253     1  180.0000771  2.0083200  2
   4246   4249   4252   4253     1  0.0000000  1.2552000  3
   4246   4249   4252   4263     1  180.0000771  2.0083200  2
   4246   4249   4252   4263     1  0.0000000  1.2552000  3
   4249   4252   4253   4256     1  180.0000771  2.0083200  2
   4249   4252   4253   4256     1  0.0000000  1.2552000  3
   4249   4252   4263   4266     1  180.0000771  2.0083200  2
   4249   4252   4263   4266     1  0.0000000  1.2552000  3
   4249   4246   4243   4273     1  0.0000000  0.6508444  3
   4252   4253   4256   4259     1  0.0000000  0.6508444  3
   4252   4263   4266   4269     1  0.0000000  0.6508444  3
   4253   4256   4259   4260     1  180.0000771  0.0000000  2
   4253   4256   4259   4261     1  180.0000771  0.0000000  2
   4253   4252   4263   4266     1  180.0000771  2.0083200  2
   4253   4252   4263   4266     1  0.0000000  1.2552000  3
   4256   4253   4252   4263     1  180.0000771  2.0083200  2
   4256   4253   4252   4263     1  0.0000000  1.2552000  3
   4263   4266   4269   4270     1  180.0000771  0.0000000  2
   4263   4266   4269   4271     1  180.0000771  0.0000000  2
   4274   4277   4280   4283     1  0.0000000  0.6508444  3
   4277   4280   4283   4284     1  180.0000771  2.0083200  2
   4277   4280   4283   4284     1  0.0000000  1.2552000  3
   4277   4280   4283   4294     1  180.0000771  2.0083200  2
   4277   4280   4283   4294     1  0.0000000  1.2552000  3
   4280   4277   4274   4304     1  0.0000000  0.6508444  3
   4280   4283   4284   4287     1  180.0000771  2.0083200  2
   4280   4283   4284   4287     1  0.0000000  1.2552000  3
   4280   4283   4294   4297     1  180.0000771  2.0083200  2
   4280   4283   4294   4297     1  0.0000000  1.2552000  3
   4283   4284   4287   4290     1  0.0000000  0.6508444  3
   4283   4294   4297   4300     1  0.0000000  0.6508444  3
   4284   4283   4294   4297     1  180.0000771  2.0083200  2
   4284   4283   4294   4297     1  0.0000000  1.2552000  3
   4284   4287   4290   4291     1  180.0000771  0.0000000  2
   4284   4287   4290   4292     1  180.0000771  0.0000000  2
   4287   4284   4283   4294     1  180.0000771  2.0083200  2
   4287   4284   4283   4294     1  0.0000000  1.2552000  3
   4294   4297   4300   4301     1  180.0000771  0.0000000  2
   4294   4297   4300   4302     1  180.0000771  0.0000000  2
   4305   4308   4311   4314     1  0.0000000  0.6508444  3
   4308   4311   4314   4315     1  180.0000771  2.0083200  2
   4308   4311   4314   4315     1  0.0000000  1.2552000  3
   4308   4311   4314   4325     1  180.0000771  2.0083200  2
   4308   4311   4314   4325     1  0.0000000  1.2552000  3
   4311   4314   4315   4318     1  180.0000771  2.0083200  2
   4311   4314   4315   4318     1  0.0000000  1.2552000  3
   4311   4314   4325   4328     1  180.0000771  2.0083200  2
   4311   4314   4325   4328     1  0.0000000  1.2552000  3
   4311   4308   4305   4335     1  0.0000000  0.6508444  3
   4314   4315   4318   4321     1  0.0000000  0.6508444  3
   4314   4325   4328   4331     1  0.0000000  0.6508444  3
   4315   4318   4321   4322     1  180.0000771  0.0000000  2
   4315   4318   4321   4323     1  180.0000771  0.0000000  2
   4315   4314   4325   4328     1  180.0000771  2.0083200  2
   4315   4314   4325   4328     1  0.0000000  1.2552000  3
   4318   4315   4314   4325     1  180.0000771  2.0083200  2
   4318   4315   4314   4325     1  0.0000000  1.2552000  3
   4325   4328   4331   4332     1  180.0000771  0.0000000  2
   4325   4328   4331   4333     1  180.0000771  0.0000000  2
   4336   4339   4342   4345     1  0.0000000  0.6508444  3
   4339   4342   4345   4346     1  180.0000771  2.0083200  2
   4339   4342   4345   4346     1  0.0000000  1.2552000  3
   4339   4342   4345   4356     1  180.0000771  2.0083200  2
   4339   4342   4345   4356     1  0.0000000  1.2552000  3
   4342   4339   4336   4366     1  0.0000000  0.6508444  3
   4342   4345   4346   4349     1  180.0000771  2.0083200  2
   4342   4345   4346   4349     1  0.0000000  1.2552000  3
   4342   4345   4356   4359     1  180.0000771  2.0083200  2
   4342   4345   4356   4359     1  0.0000000  1.2552000  3
   4345   4346   4349   4352     1  0.0000000  0.6508444  3
   4345   4356   4359   4362     1  0.0000000  0.6508444  3
   4346   4345   4356   4359     1  180.0000771  2.0083200  2
   4346   4345   4356   4359     1  0.0000000  1.2552000  3
   4346   4349   4352   4353     1  180.0000771  0.0000000  2
   4346   4349   4352   4354     1  180.0000771  0.0000000  2
   4349   4346   4345   4356     1  180.0000771  2.0083200  2
   4349   4346   4345   4356     1  0.0000000  1.2552000  3
   4356   4359   4362   4363     1  180.0000771  0.0000000  2
   4356   4359   4362   4364     1  180.0000771  0.0000000  2
   4367   4370   4373   4376     1  0.0000000  0.6508444  3
   4370   4373   4376   4377     1  180.0000771  2.0083200  2
   4370   4373   4376   4377     1  0.0000000  1.2552000  3
   4370   4373   4376   4387     1  180.0000771  2.0083200  2
   4370   4373   4376   4387     1  0.0000000  1.2552000  3
   4373   4376   4377   4380     1  180.0000771  2.0083200  2
   4373   4376   4377   4380     1  0.0000000  1.2552000  3
   4373   4376   4387   4390     1  180.0000771  2.0083200  2
   4373   4376   4387   4390     1  0.0000000  1.2552000  3
   4373   4370   4367   4397     1  0.0000000  0.6508444  3
   4376   4377   4380   4383     1  0.0000000  0.6508444  3
   4376   4387   4390   4393     1  0.0000000  0.6508444  3
   4377   4380   4383   4384     1  180.0000771  0.0000000  2
   4377   4380   4383   4385     1  180.0000771  0.0000000  2
   4377   4376   4387   4390     1  180.0000771  2.0083200  2
   4377   4376   4387   4390     1  0.0000000  1.2552000  3
   4380   4377   4376   4387     1  180.0000771  2.0083200  2
   4380   4377   4376   4387     1  0.0000000  1.2552000  3
   4387   4390   4393   4394     1  180.0000771  0.0000000  2
   4387   4390   4393   4395     1  180.0000771  0.0000000  2
   4398   4401   4404   4407     1  0.0000000  0.6508444  3
   4401   4404   4407   4408     1  180.0000771  2.0083200  2
   4401   4404   4407   4408     1  0.0000000  1.2552000  3
   4401   4404   4407   4418     1  180.0000771  2.0083200  2
   4401   4404   4407   4418     1  0.0000000  1.2552000  3
   4404   4401   4398   4428     1  0.0000000  0.6508444  3
   4404   4407   4408   4411     1  180.0000771  2.0083200  2
   4404   4407   4408   4411     1  0.0000000  1.2552000  3
   4404   4407   4418   4421     1  180.0000771  2.0083200  2
   4404   4407   4418   4421     1  0.0000000  1.2552000  3
   4407   4408   4411   4414     1  0.0000000  0.6508444  3
   4407   4418   4421   4424     1  0.0000000  0.6508444  3
   4408   4407   4418   4421     1  180.0000771  2.0083200  2
   4408   4407   4418   4421     1  0.0000000  1.2552000  3
   4408   4411   4414   4415     1  180.0000771  0.0000000  2
   4408   4411   4414   4416     1  180.0000771  0.0000000  2
   4411   4408   4407   4418     1  180.0000771  2.0083200  2
   4411   4408   4407   4418     1  0.0000000  1.2552000  3
   4418   4421   4424   4425     1  180.0000771  0.0000000  2
   4418   4421   4424   4426     1  180.0000771  0.0000000  2
   4429   4432   4435   4438     1  0.0000000  0.6508444  3
   4432   4435   4438   4439     1  180.0000771  2.0083200  2
   4432   4435   4438   4439     1  0.0000000  1.2552000  3
   4432   4435   4438   4449     1  180.0000771  2.0083200  2
   4432   4435   4438   4449     1  0.0000000  1.2552000  3
   4435   4438   4439   4442     1  180.0000771  2.0083200  2
   4435   4438   4439   4442     1  0.0000000  1.2552000  3
   4435   4438   4449   4452     1  180.0000771  2.0083200  2
   4435   4438   4449   4452     1  0.0000000  1.2552000  3
   4435   4432   4429   4459     1  0.0000000  0.6508444  3
   4438   4439   4442   4445     1  0.0000000  0.6508444  3
   4438   4449   4452   4455     1  0.0000000  0.6508444  3
   4439   4442   4445   4446     1  180.0000771  0.0000000  2
   4439   4442   4445   4447     1  180.0000771  0.0000000  2
   4439   4438   4449   4452     1  180.0000771  2.0083200  2
   4439   4438   4449   4452     1  0.0000000  1.2552000  3
   4442   4439   4438   4449     1  180.0000771  2.0083200  2
   4442   4439   4438   4449     1  0.0000000  1.2552000  3
   4449   4452   4455   4456     1  180.0000771  0.0000000  2
   4449   4452   4455   4457     1  180.0000771  0.0000000  2
   4460   4463   4466   4469     1  0.0000000  0.6508444  3
   4463   4466   4469   4470     1  180.0000771  2.0083200  2
   4463   4466   4469   4470     1  0.0000000  1.2552000  3
   4463   4466   4469   4480     1  180.0000771  2.0083200  2
   4463   4466   4469   4480     1  0.0000000  1.2552000  3
   4466   4463   4460   4490     1  0.0000000  0.6508444  3
   4466   4469   4470   4473     1  180.0000771  2.0083200  2
   4466   4469   4470   4473     1  0.0000000  1.2552000  3
   4466   4469   4480   4483     1  180.0000771  2.0083200  2
   4466   4469   4480   4483     1  0.0000000  1.2552000  3
   4469   4470   4473   4476     1  0.0000000  0.6508444  3
   4469   4480   4483   4486     1  0.0000000  0.6508444  3
   4470   4469   4480   4483     1  180.0000771  2.0083200  2
   4470   4469   4480   4483     1  0.0000000  1.2552000  3
   4470   4473   4476   4477     1  180.0000771  0.0000000  2
   4470   4473   4476   4478     1  180.0000771  0.0000000  2
   4473   4470   4469   4480     1  180.0000771  2.0083200  2
   4473   4470   4469   4480     1  0.0000000  1.2552000  3
   4480   4483   4486   4487     1  180.0000771  0.0000000  2
   4480   4483   4486   4488     1  180.0000771  0.0000000  2
   4491   4494   4497   4500     1  0.0000000  0.6508444  3
   4494   4497   4500   4501     1  180.0000771  2.0083200  2
   4494   4497   4500   4501     1  0.0000000  1.2552000  3
   4494   4497   4500   4511     1  180.0000771  2.0083200  2
   4494   4497   4500   4511     1  0.0000000  1.2552000  3
   4497   4500   4501   4504     1  180.0000771  2.0083200  2
   4497   4500   4501   4504     1  0.0000000  1.2552000  3
   4497   4500   4511   4514     1  180.0000771  2.0083200  2
   4497   4500   4511   4514     1  0.0000000  1.2552000  3
   4497   4494   4491   4521     1  0.0000000  0.6508444  3
   4500   4501   4504   4507     1  0.0000000  0.6508444  3
   4500   4511   4514   4517     1  0.0000000  0.6508444  3
   4501   4504   4507   4508     1  180.0000771  0.0000000  2
   4501   4504   4507   4509     1  180.0000771  0.0000000  2
   4501   4500   4511   4514     1  180.0000771  2.0083200  2
   4501   4500   4511   4514     1  0.0000000  1.2552000  3
   4504   4501   4500   4511     1  180.0000771  2.0083200  2
   4504   4501   4500   4511     1  0.0000000  1.2552000  3
   4511   4514   4517   4518     1  180.0000771  0.0000000  2
   4511   4514   4517   4519     1  180.0000771  0.0000000  2
   4522   4525   4528   4531     1  0.0000000  0.6508444  3
   4525   4528   4531   4532     1  180.0000771  2.0083200  2
   4525   4528   4531   4532     1  0.0000000  1.2552000  3
   4525   4528   4531   4542     1  180.0000771  2.0083200  2
   4525   4528   4531   4542     1  0.0000000  1.2552000  3
   4528   4525   4522   4552     1  0.0000000  0.6508444  3
   4528   4531   4532   4535     1  180.0000771  2.0083200  2
   4528   4531   4532   4535     1  0.0000000  1.2552000  3
   4528   4531   4542   4545     1  180.0000771  2.0083200  2
   4528   4531   4542   4545     1  0.0000000  1.2552000  3
   4531   4532   4535   4538     1  0.0000000  0.6508444  3
   4531   4542   4545   4548     1  0.0000000  0.6508444  3
   4532   4531   4542   4545     1  180.0000771  2.0083200  2
   4532   4531   4542   4545     1  0.0000000  1.2552000  3
   4532   4535   4538   4539     1  180.0000771  0.0000000  2
   4532   4535   4538   4540     1  180.0000771  0.0000000  2
   4535   4532   4531   4542     1  180.0000771  2.0083200  2
   4535   4532   4531   4542     1  0.0000000  1.2552000  3
   4542   4545   4548   4549     1  180.0000771  0.0000000  2
   4542   4545   4548   4550     1  180.0000771  0.0000000  2
   4553   4556   4559   4562     1  0.0000000  0.6508444  3
   4556   4559   4562   4563     1  180.0000771  2.0083200  2
   4556   4559   4562   4563     1  0.0000000  1.2552000  3
   4556   4559   4562   4573     1  180.0000771  2.0083200  2
   4556   4559   4562   4573     1  0.0000000  1.2552000  3
   4559   4562   4563   4566     1  180.0000771  2.0083200  2
   4559   4562   4563   4566     1  0.0000000  1.2552000  3
   4559   4562   4573   4576     1  180.0000771  2.0083200  2
   4559   4562   4573   4576     1  0.0000000  1.2552000  3
   4559   4556   4553   4583     1  0.0000000  0.6508444  3
   4562   4563   4566   4569     1  0.0000000  0.6508444  3
   4562   4573   4576   4579     1  0.0000000  0.6508444  3
   4563   4566   4569   4570     1  180.0000771  0.0000000  2
   4563   4566   4569   4571     1  180.0000771  0.0000000  2
   4563   4562   4573   4576     1  180.0000771  2.0083200  2
   4563   4562   4573   4576     1  0.0000000  1.2552000  3
   4566   4563   4562   4573     1  180.0000771  2.0083200  2
   4566   4563   4562   4573     1  0.0000000  1.2552000  3
   4573   4576   4579   4580     1  180.0000771  0.0000000  2
   4573   4576   4579   4581     1  180.0000771  0.0000000  2
   4584   4587   4590   4593     1  0.0000000  0.6508444  3
   4587   4590   4593   4594     1  180.0000771  2.0083200  2
   4587   4590   4593   4594     1  0.0000000  1.2552000  3
   4587   4590   4593   4604     1  180.0000771  2.0083200  2
   4587   4590   4593   4604     1  0.0000000  1.2552000  3
   4590   4587   4584   4614     1  0.0000000  0.6508444  3
   4590   4593   4594   4597     1  180.0000771  2.0083200  2
   4590   4593   4594   4597     1  0.0000000  1.2552000  3
   4590   4593   4604   4607     1  180.0000771  2.0083200  2
   4590   4593   4604   4607     1  0.0000000  1.2552000  3
   4593   4594   4597   4600     1  0.0000000  0.6508444  3
   4593   4604   4607   4610     1  0.0000000  0.6508444  3
   4594   4593   4604   4607     1  180.0000771  2.0083200  2
   4594   4593   4604   4607     1  0.0000000  1.2552000  3
   4594   4597   4600   4601     1  180.0000771  0.0000000  2
   4594   4597   4600   4602     1  180.0000771  0.0000000  2
   4597   4594   4593   4604     1  180.0000771  2.0083200  2
   4597   4594   4593   4604     1  0.0000000  1.2552000  3
   4604   4607   4610   4611     1  180.0000771  0.0000000  2
   4604   4607   4610   4612     1  180.0000771  0.0000000  2
   4615   4618   4621   4624     1  0.0000000  0.6508444  3
   4618   4621   4624   4625     1  180.0000771  2.0083200  2
   4618   4621   4624   4625     1  0.0000000  1.2552000  3
   4618   4621   4624   4635     1  180.0000771  2.0083200  2
   4618   4621   4624   4635     1  0.0000000  1.2552000  3
   4621   4624   4625   4628     1  180.0000771  2.0083200  2
   4621   4624   4625   4628     1  0.0000000  1.2552000  3
   4621   4624   4635   4638     1  180.0000771  2.0083200  2
   4621   4624   4635   4638     1  0.0000000  1.2552000  3
   4621   4618   4615   4645     1  0.0000000  0.6508444  3
   4624   4625   4628   4631     1  0.0000000  0.6508444  3
   4624   4635   4638   4641     1  0.0000000  0.6508444  3
   4625   4628   4631   4632     1  180.0000771  0.0000000  2
   4625   4628   4631   4633     1  180.0000771  0.0000000  2
   4625   4624   4635   4638     1  180.0000771  2.0083200  2
   4625   4624   4635   4638     1  0.0000000  1.2552000  3
   4628   4625   4624   4635     1  180.0000771  2.0083200  2
   4628   4625   4624   4635     1  0.0000000  1.2552000  3
   4635   4638   4641   4642     1  180.0000771  0.0000000  2
   4635   4638   4641   4643     1  180.0000771  0.0000000  2
   4646   4649   4652   4655     1  0.0000000  0.6508444  3
   4649   4652   4655   4656     1  180.0000771  2.0083200  2
   4649   4652   4655   4656     1  0.0000000  1.2552000  3
   4649   4652   4655   4666     1  180.0000771  2.0083200  2
   4649   4652   4655   4666     1  0.0000000  1.2552000  3
   4652   4649   4646   4676     1  0.0000000  0.6508444  3
   4652   4655   4656   4659     1  180.0000771  2.0083200  2
   4652   4655   4656   4659     1  0.0000000  1.2552000  3
   4652   4655   4666   4669     1  180.0000771  2.0083200  2
   4652   4655   4666   4669     1  0.0000000  1.2552000  3
   4655   4656   4659   4662     1  0.0000000  0.6508444  3
   4655   4666   4669   4672     1  0.0000000  0.6508444  3
   4656   4655   4666   4669     1  180.0000771  2.0083200  2
   4656   4655   4666   4669     1  0.0000000  1.2552000  3
   4656   4659   4662   4663     1  180.0000771  0.0000000  2
   4656   4659   4662   4664     1  180.0000771  0.0000000  2
   4659   4656   4655   4666     1  180.0000771  2.0083200  2
   4659   4656   4655   4666     1  0.0000000  1.2552000  3
   4666   4669   4672   4673     1  180.0000771  0.0000000  2
   4666   4669   4672   4674     1  180.0000771  0.0000000  2
   4677   4680   4683   4686     1  0.0000000  0.6508444  3
   4680   4683   4686   4687     1  180.0000771  2.0083200  2
   4680   4683   4686   4687     1  0.0000000  1.2552000  3
   4680   4683   4686   4697     1  180.0000771  2.0083200  2
   4680   4683   4686   4697     1  0.0000000  1.2552000  3
   4683   4686   4687   4690     1  180.0000771  2.0083200  2
   4683   4686   4687   4690     1  0.0000000  1.2552000  3
   4683   4686   4697   4700     1  180.0000771  2.0083200  2
   4683   4686   4697   4700     1  0.0000000  1.2552000  3
   4683   4680   4677   4707     1  0.0000000  0.6508444  3
   4686   4687   4690   4693     1  0.0000000  0.6508444  3
   4686   4697   4700   4703     1  0.0000000  0.6508444  3
   4687   4690   4693   4694     1  180.0000771  0.0000000  2
   4687   4690   4693   4695     1  180.0000771  0.0000000  2
   4687   4686   4697   4700     1  180.0000771  2.0083200  2
   4687   4686   4697   4700     1  0.0000000  1.2552000  3
   4690   4687   4686   4697     1  180.0000771  2.0083200  2
   4690   4687   4686   4697     1  0.0000000  1.2552000  3
   4697   4700   4703   4704     1  180.0000771  0.0000000  2
   4697   4700   4703   4705     1  180.0000771  0.0000000  2
   4708   4711   4714   4717     1  0.0000000  0.6508444  3
   4711   4714   4717   4718     1  180.0000771  2.0083200  2
   4711   4714   4717   4718     1  0.0000000  1.2552000  3
   4711   4714   4717   4728     1  180.0000771  2.0083200  2
   4711   4714   4717   4728     1  0.0000000  1.2552000  3
   4714   4711   4708   4738     1  0.0000000  0.6508444  3
   4714   4717   4718   4721     1  180.0000771  2.0083200  2
   4714   4717   4718   4721     1  0.0000000  1.2552000  3
   4714   4717   4728   4731     1  180.0000771  2.0083200  2
   4714   4717   4728   4731     1  0.0000000  1.2552000  3
   4717   4718   4721   4724     1  0.0000000  0.6508444  3
   4717   4728   4731   4734     1  0.0000000  0.6508444  3
   4718   4717   4728   4731     1  180.0000771  2.0083200  2
   4718   4717   4728   4731     1  0.0000000  1.2552000  3
   4718   4721   4724   4725     1  180.0000771  0.0000000  2
   4718   4721   4724   4726     1  180.0000771  0.0000000  2
   4721   4718   4717   4728     1  180.0000771  2.0083200  2
   4721   4718   4717   4728     1  0.0000000  1.2552000  3
   4728   4731   4734   4735     1  180.0000771  0.0000000  2
   4728   4731   4734   4736     1  180.0000771  0.0000000  2
   4739   4742   4745   4748     1  0.0000000  0.6508444  3
   4742   4745   4748   4749     1  180.0000771  2.0083200  2
   4742   4745   4748   4749     1  0.0000000  1.2552000  3
   4742   4745   4748   4759     1  180.0000771  2.0083200  2
   4742   4745   4748   4759     1  0.0000000  1.2552000  3
   4745   4748   4749   4752     1  180.0000771  2.0083200  2
   4745   4748   4749   4752     1  0.0000000  1.2552000  3
   4745   4748   4759   4762     1  180.0000771  2.0083200  2
   4745   4748   4759   4762     1  0.0000000  1.2552000  3
   4745   4742   4739   4769     1  0.0000000  0.6508444  3
   4748   4749   4752   4755     1  0.0000000  0.6508444  3
   4748   4759   4762   4765     1  0.0000000  0.6508444  3
   4749   4752   4755   4756     1  180.0000771  0.0000000  2
   4749   4752   4755   4757     1  180.0000771  0.0000000  2
   4749   4748   4759   4762     1  180.0000771  2.0083200  2
   4749   4748   4759   4762     1  0.0000000  1.2552000  3
   4752   4749   4748   4759     1  180.0000771  2.0083200  2
   4752   4749   4748   4759     1  0.0000000  1.2552000  3
   4759   4762   4765   4766     1  180.0000771  0.0000000  2
   4759   4762   4765   4767     1  180.0000771  0.0000000  2
   4770   4773   4776   4779     1  0.0000000  0.6508444  3
   4773   4776   4779   4780     1  180.0000771  2.0083200  2
   4773   4776   4779   4780     1  0.0000000  1.2552000  3
   4773   4776   4779   4790     1  180.0000771  2.0083200  2
   4773   4776   4779   4790     1  0.0000000  1.2552000  3
   4776   4773   4770   4800     1  0.0000000  0.6508444  3
   4776   4779   4780   4783     1  180.0000771  2.0083200  2
   4776   4779   4780   4783     1  0.0000000  1.2552000  3
   4776   4779   4790   4793     1  180.0000771  2.0083200  2
   4776   4779   4790   4793     1  0.0000000  1.2552000  3
   4779   4780   4783   4786     1  0.0000000  0.6508444  3
   4779   4790   4793   4796     1  0.0000000  0.6508444  3
   4780   4779   4790   4793     1  180.0000771  2.0083200  2
   4780   4779   4790   4793     1  0.0000000  1.2552000  3
   4780   4783   4786   4787     1  180.0000771  0.0000000  2
   4780   4783   4786   4788     1  180.0000771  0.0000000  2
   4783   4780   4779   4790     1  180.0000771  2.0083200  2
   4783   4780   4779   4790     1  0.0000000  1.2552000  3
   4790   4793   4796   4797     1  180.0000771  0.0000000  2
   4790   4793   4796   4798     1  180.0000771  0.0000000  2
   4801   4804   4807   4810     1  0.0000000  0.6508444  3
   4804   4807   4810   4811     1  180.0000771  2.0083200  2
   4804   4807   4810   4811     1  0.0000000  1.2552000  3
   4804   4807   4810   4821     1  180.0000771  2.0083200  2
   4804   4807   4810   4821     1  0.0000000  1.2552000  3
   4807   4810   4811   4814     1  180.0000771  2.0083200  2
   4807   4810   4811   4814     1  0.0000000  1.2552000  3
   4807   4810   4821   4824     1  180.0000771  2.0083200  2
   4807   4810   4821   4824     1  0.0000000  1.2552000  3
   4807   4804   4801   4831     1  0.0000000  0.6508444  3
   4810   4811   4814   4817     1  0.0000000  0.6508444  3
   4810   4821   4824   4827     1  0.0000000  0.6508444  3
   4811   4814   4817   4818     1  180.0000771  0.0000000  2
   4811   4814   4817   4819     1  180.0000771  0.0000000  2
   4811   4810   4821   4824     1  180.0000771  2.0083200  2
   4811   4810   4821   4824     1  0.0000000  1.2552000  3
   4814   4811   4810   4821     1  180.0000771  2.0083200  2
   4814   4811   4810   4821     1  0.0000000  1.2552000  3
   4821   4824   4827   4828     1  180.0000771  0.0000000  2
   4821   4824   4827   4829     1  180.0000771  0.0000000  2
   4832   4835   4838   4841     1  0.0000000  0.6508444  3
   4835   4838   4841   4842     1  180.0000771  2.0083200  2
   4835   4838   4841   4842     1  0.0000000  1.2552000  3
   4835   4838   4841   4852     1  180.0000771  2.0083200  2
   4835   4838   4841   4852     1  0.0000000  1.2552000  3
   4838   4835   4832   4862     1  0.0000000  0.6508444  3
   4838   4841   4842   4845     1  180.0000771  2.0083200  2
   4838   4841   4842   4845     1  0.0000000  1.2552000  3
   4838   4841   4852   4855     1  180.0000771  2.0083200  2
   4838   4841   4852   4855     1  0.0000000  1.2552000  3
   4841   4842   4845   4848     1  0.0000000  0.6508444  3
   4841   4852   4855   4858     1  0.0000000  0.6508444  3
   4842   4841   4852   4855     1  180.0000771  2.0083200  2
   4842   4841   4852   4855     1  0.0000000  1.2552000  3
   4842   4845   4848   4849     1  180.0000771  0.0000000  2
   4842   4845   4848   4850     1  180.0000771  0.0000000  2
   4845   4842   4841   4852     1  180.0000771  2.0083200  2
   4845   4842   4841   4852     1  0.0000000  1.2552000  3
   4852   4855   4858   4859     1  180.0000771  0.0000000  2
   4852   4855   4858   4860     1  180.0000771  0.0000000  2
   4863   4866   4869   4872     1  0.0000000  0.6508444  3
   4866   4869   4872   4873     1  180.0000771  2.0083200  2
   4866   4869   4872   4873     1  0.0000000  1.2552000  3
   4866   4869   4872   4883     1  180.0000771  2.0083200  2
   4866   4869   4872   4883     1  0.0000000  1.2552000  3
   4869   4872   4873   4876     1  180.0000771  2.0083200  2
   4869   4872   4873   4876     1  0.0000000  1.2552000  3
   4869   4872   4883   4886     1  180.0000771  2.0083200  2
   4869   4872   4883   4886     1  0.0000000  1.2552000  3
   4869   4866   4863   4893     1  0.0000000  0.6508444  3
   4872   4873   4876   4879     1  0.0000000  0.6508444  3
   4872   4883   4886   4889     1  0.0000000  0.6508444  3
   4873   4876   4879   4880     1  180.0000771  0.0000000  2
   4873   4876   4879   4881     1  180.0000771  0.0000000  2
   4873   4872   4883   4886     1  180.0000771  2.0083200  2
   4873   4872   4883   4886     1  0.0000000  1.2552000  3
   4876   4873   4872   4883     1  180.0000771  2.0083200  2
   4876   4873   4872   4883     1  0.0000000  1.2552000  3
   4883   4886   4889   4890     1  180.0000771  0.0000000  2
   4883   4886   4889   4891     1  180.0000771  0.0000000  2
   4894   4897   4900   4903     1  0.0000000  0.6508444  3
   4897   4900   4903   4904     1  180.0000771  2.0083200  2
   4897   4900   4903   4904     1  0.0000000  1.2552000  3
   4897   4900   4903   4914     1  180.0000771  2.0083200  2
   4897   4900   4903   4914     1  0.0000000  1.2552000  3
   4900   4897   4894   4924     1  0.0000000  0.6508444  3
   4900   4903   4904   4907     1  180.0000771  2.0083200  2
   4900   4903   4904   4907     1  0.0000000  1.2552000  3
   4900   4903   4914   4917     1  180.0000771  2.0083200  2
   4900   4903   4914   4917     1  0.0000000  1.2552000  3
   4903   4904   4907   4910     1  0.0000000  0.6508444  3
   4903   4914   4917   4920     1  0.0000000  0.6508444  3
   4904   4903   4914   4917     1  180.0000771  2.0083200  2
   4904   4903   4914   4917     1  0.0000000  1.2552000  3
   4904   4907   4910   4911     1  180.0000771  0.0000000  2
   4904   4907   4910   4912     1  180.0000771  0.0000000  2
   4907   4904   4903   4914     1  180.0000771  2.0083200  2
   4907   4904   4903   4914     1  0.0000000  1.2552000  3
   4914   4917   4920   4921     1  180.0000771  0.0000000  2
   4914   4917   4920   4922     1  180.0000771  0.0000000  2
   4925   4928   4931   4934     1  0.0000000  0.6508444  3
   4928   4931   4934   4935     1  180.0000771  2.0083200  2
   4928   4931   4934   4935     1  0.0000000  1.2552000  3
   4928   4931   4934   4945     1  180.0000771  2.0083200  2
   4928   4931   4934   4945     1  0.0000000  1.2552000  3
   4931   4934   4935   4938     1  180.0000771  2.0083200  2
   4931   4934   4935   4938     1  0.0000000  1.2552000  3
   4931   4934   4945   4948     1  180.0000771  2.0083200  2
   4931   4934   4945   4948     1  0.0000000  1.2552000  3
   4931   4928   4925   4955     1  0.0000000  0.6508444  3
   4934   4935   4938   4941     1  0.0000000  0.6508444  3
   4934   4945   4948   4951     1  0.0000000  0.6508444  3
   4935   4938   4941   4942     1  180.0000771  0.0000000  2
   4935   4938   4941   4943     1  180.0000771  0.0000000  2
   4935   4934   4945   4948     1  180.0000771  2.0083200  2
   4935   4934   4945   4948     1  0.0000000  1.2552000  3
   4938   4935   4934   4945     1  180.0000771  2.0083200  2
   4938   4935   4934   4945     1  0.0000000  1.2552000  3
   4945   4948   4951   4952     1  180.0000771  0.0000000  2
   4945   4948   4951   4953     1  180.0000771  0.0000000  2
   4956   4959   4962   4965     1  0.0000000  0.6508444  3
   4959   4962   4965   4966     1  180.0000771  2.0083200  2
   4959   4962   4965   4966     1  0.0000000  1.2552000  3
   4959   4962   4965   4976     1  180.0000771  2.0083200  2
   4959   4962   4965   4976     1  0.0000000  1.2552000  3
   4962   4959   4956   4986     1  0.0000000  0.6508444  3
   4962   4965   4966   4969     1  180.0000771  2.0083200  2
   4962   4965   4966   4969     1  0.0000000  1.2552000  3
   4962   4965   4976   4979     1  180.0000771  2.0083200  2
   4962   4965   4976   4979     1  0.0000000  1.2552000  3
   4965   4966   4969   4972     1  0.0000000  0.6508444  3
   4965   4976   4979   4982     1  0.0000000  0.6508444  3
   4966   4965   4976   4979     1  180.0000771  2.0083200  2
   4966   4965   4976   4979     1  0.0000000  1.2552000  3
   4966   4969   4972   4973     1  180.0000771  0.0000000  2
   4966   4969   4972   4974     1  180.0000771  0.0000000  2
   4969   4966   4965   4976     1  180.0000771  2.0083200  2
   4969   4966   4965   4976     1  0.0000000  1.2552000  3
   4976   4979   4982   4983     1  180.0000771  0.0000000  2
   4976   4979   4982   4984     1  180.0000771  0.0000000  2
   4987   4990   4993   4996     1  0.0000000  0.6508444  3
   4990   4993   4996   4997     1  180.0000771  2.0083200  2
   4990   4993   4996   4997     1  0.0000000  1.2552000  3
   4990   4993   4996   5007     1  180.0000771  2.0083200  2
   4990   4993   4996   5007     1  0.0000000  1.2552000  3
   4993   4996   4997   5000     1  180.0000771  2.0083200  2
   4993   4996   4997   5000     1  0.0000000  1.2552000  3
   4993   4996   5007   5010     1  180.0000771  2.0083200  2
   4993   4996   5007   5010     1  0.0000000  1.2552000  3
   4993   4990   4987   5017     1  0.0000000  0.6508444  3
   4996   4997   5000   5003     1  0.0000000  0.6508444  3
   4996   5007   5010   5013     1  0.0000000  0.6508444  3
   4997   5000   5003   5004     1  180.0000771  0.0000000  2
   4997   5000   5003   5005     1  180.0000771  0.0000000  2
   4997   4996   5007   5010     1  180.0000771  2.0083200  2
   4997   4996   5007   5010     1  0.0000000  1.2552000  3
   5000   4997   4996   5007     1  180.0000771  2.0083200  2
   5000   4997   4996   5007     1  0.0000000  1.2552000  3
   5007   5010   5013   5014     1  180.0000771  0.0000000  2
   5007   5010   5013   5015     1  180.0000771  0.0000000  2
   5018   5021   5024   5027     1  0.0000000  0.6508444  3
   5021   5024   5027   5028     1  180.0000771  2.0083200  2
   5021   5024   5027   5028     1  0.0000000  1.2552000  3
   5021   5024   5027   5038     1  180.0000771  2.0083200  2
   5021   5024   5027   5038     1  0.0000000  1.2552000  3
   5024   5021   5018   5048     1  0.0000000  0.6508444  3
   5024   5027   5028   5031     1  180.0000771  2.0083200  2
   5024   5027   5028   5031     1  0.0000000  1.2552000  3
   5024   5027   5038   5041     1  180.0000771  2.0083200  2
   5024   5027   5038   5041     1  0.0000000  1.2552000  3
   5027   5028   5031   5034     1  0.0000000  0.6508444  3
   5027   5038   5041   5044     1  0.0000000  0.6508444  3
   5028   5027   5038   5041     1  180.0000771  2.0083200  2
   5028   5027   5038   5041     1  0.0000000  1.2552000  3
   5028   5031   5034   5035     1  180.0000771  0.0000000  2
   5028   5031   5034   5036     1  180.0000771  0.0000000  2
   5031   5028   5027   5038     1  180.0000771  2.0083200  2
   5031   5028   5027   5038     1  0.0000000  1.2552000  3
   5038   5041   5044   5045     1  180.0000771  0.0000000  2
   5038   5041   5044   5046     1  180.0000771  0.0000000  2
   5049   5052   5055   5058     1  0.0000000  0.6508444  3
   5052   5055   5058   5059     1  180.0000771  2.0083200  2
   5052   5055   5058   5059     1  0.0000000  1.2552000  3
   5052   5055   5058   5069     1  180.0000771  2.0083200  2
   5052   5055   5058   5069     1  0.0000000  1.2552000  3
   5055   5058   5059   5062     1  180.0000771  2.0083200  2
   5055   5058   5059   5062     1  0.0000000  1.2552000  3
   5055   5058   5069   5072     1  180.0000771  2.0083200  2
   5055   5058   5069   5072     1  0.0000000  1.2552000  3
   5055   5052   5049   5079     1  0.0000000  0.6508444  3
   5058   5059   5062   5065     1  0.0000000  0.6508444  3
   5058   5069   5072   5075     1  0.0000000  0.6508444  3
   5059   5062   5065   5066     1  180.0000771  0.0000000  2
   5059   5062   5065   5067     1  180.0000771  0.0000000  2
   5059   5058   5069   5072     1  180.0000771  2.0083200  2
   5059   5058   5069   5072     1  0.0000000  1.2552000  3
   5062   5059   5058   5069     1  180.0000771  2.0083200  2
   5062   5059   5058   5069     1  0.0000000  1.2552000  3
   5069   5072   5075   5076     1  180.0000771  0.0000000  2
   5069   5072   5075   5077     1  180.0000771  0.0000000  2
   5080   5083   5086   5089     1  0.0000000  0.6508444  3
   5083   5086   5089   5090     1  180.0000771  2.0083200  2
   5083   5086   5089   5090     1  0.0000000  1.2552000  3
   5083   5086   5089   5100     1  180.0000771  2.0083200  2
   5083   5086   5089   5100     1  0.0000000  1.2552000  3
   5086   5083   5080   5110     1  0.0000000  0.6508444  3
   5086   5089   5090   5093     1  180.0000771  2.0083200  2
   5086   5089   5090   5093     1  0.0000000  1.2552000  3
   5086   5089   5100   5103     1  180.0000771  2.0083200  2
   5086   5089   5100   5103     1  0.0000000  1.2552000  3
   5089   5090   5093   5096     1  0.0000000  0.6508444  3
   5089   5100   5103   5106     1  0.0000000  0.6508444  3
   5090   5089   5100   5103     1  180.0000771  2.0083200  2
   5090   5089   5100   5103     1  0.0000000  1.2552000  3
   5090   5093   5096   5097     1  180.0000771  0.0000000  2
   5090   5093   5096   5098     1  180.0000771  0.0000000  2
   5093   5090   5089   5100     1  180.0000771  2.0083200  2
   5093   5090   5089   5100     1  0.0000000  1.2552000  3
   5100   5103   5106   5107     1  180.0000771  0.0000000  2
   5100   5103   5106   5108     1  180.0000771  0.0000000  2
   5111   5114   5117   5120     1  0.0000000  0.6508444  3
   5114   5117   5120   5121     1  180.0000771  2.0083200  2
   5114   5117   5120   5121     1  0.0000000  1.2552000  3
   5114   5117   5120   5131     1  180.0000771  2.0083200  2
   5114   5117   5120   5131     1  0.0000000  1.2552000  3
   5117   5120   5121   5124     1  180.0000771  2.0083200  2
   5117   5120   5121   5124     1  0.0000000  1.2552000  3
   5117   5120   5131   5134     1  180.0000771  2.0083200  2
   5117   5120   5131   5134     1  0.0000000  1.2552000  3
   5117   5114   5111   5141     1  0.0000000  0.6508444  3
   5120   5121   5124   5127     1  0.0000000  0.6508444  3
   5120   5131   5134   5137     1  0.0000000  0.6508444  3
   5121   5124   5127   5128     1  180.0000771  0.0000000  2
   5121   5124   5127   5129     1  180.0000771  0.0000000  2
   5121   5120   5131   5134     1  180.0000771  2.0083200  2
   5121   5120   5131   5134     1  0.0000000  1.2552000  3
   5124   5121   5120   5131     1  180.0000771  2.0083200  2
   5124   5121   5120   5131     1  0.0000000  1.2552000  3
   5131   5134   5137   5138     1  180.0000771  0.0000000  2
   5131   5134   5137   5139     1  180.0000771  0.0000000  2
   5142   5145   5148   5151     1  0.0000000  0.6508444  3
   5145   5148   5151   5152     1  180.0000771  2.0083200  2
   5145   5148   5151   5152     1  0.0000000  1.2552000  3
   5145   5148   5151   5162     1  180.0000771  2.0083200  2
   5145   5148   5151   5162     1  0.0000000  1.2552000  3
   5148   5145   5142   5172     1  0.0000000  0.6508444  3
   5148   5151   5152   5155     1  180.0000771  2.0083200  2
   5148   5151   5152   5155     1  0.0000000  1.2552000  3
   5148   5151   5162   5165     1  180.0000771  2.0083200  2
   5148   5151   5162   5165     1  0.0000000  1.2552000  3
   5151   5152   5155   5158     1  0.0000000  0.6508444  3
   5151   5162   5165   5168     1  0.0000000  0.6508444  3
   5152   5151   5162   5165     1  180.0000771  2.0083200  2
   5152   5151   5162   5165     1  0.0000000  1.2552000  3
   5152   5155   5158   5159     1  180.0000771  0.0000000  2
   5152   5155   5158   5160     1  180.0000771  0.0000000  2
   5155   5152   5151   5162     1  180.0000771  2.0083200  2
   5155   5152   5151   5162     1  0.0000000  1.2552000  3
   5162   5165   5168   5169     1  180.0000771  0.0000000  2
   5162   5165   5168   5170     1  180.0000771  0.0000000  2
   5173   5176   5179   5182     1  0.0000000  0.6508444  3
   5176   5179   5182   5183     1  180.0000771  2.0083200  2
   5176   5179   5182   5183     1  0.0000000  1.2552000  3
   5176   5179   5182   5193     1  180.0000771  2.0083200  2
   5176   5179   5182   5193     1  0.0000000  1.2552000  3
   5179   5182   5183   5186     1  180.0000771  2.0083200  2
   5179   5182   5183   5186     1  0.0000000  1.2552000  3
   5179   5182   5193   5196     1  180.0000771  2.0083200  2
   5179   5182   5193   5196     1  0.0000000  1.2552000  3
   5179   5176   5173   5203     1  0.0000000  0.6508444  3
   5182   5183   5186   5189     1  0.0000000  0.6508444  3
   5182   5193   5196   5199     1  0.0000000  0.6508444  3
   5183   5186   5189   5190     1  180.0000771  0.0000000  2
   5183   5186   5189   5191     1  180.0000771  0.0000000  2
   5183   5182   5193   5196     1  180.0000771  2.0083200  2
   5183   5182   5193   5196     1  0.0000000  1.2552000  3
   5186   5183   5182   5193     1  180.0000771  2.0083200  2
   5186   5183   5182   5193     1  0.0000000  1.2552000  3
   5193   5196   5199   5200     1  180.0000771  0.0000000  2
   5193   5196   5199   5201     1  180.0000771  0.0000000  2
   5204   5207   5210   5213     1  0.0000000  0.6508444  3
   5207   5210   5213   5214     1  180.0000771  2.0083200  2
   5207   5210   5213   5214     1  0.0000000  1.2552000  3
   5207   5210   5213   5224     1  180.0000771  2.0083200  2
   5207   5210   5213   5224     1  0.0000000  1.2552000  3
   5210   5207   5204   5234     1  0.0000000  0.6508444  3
   5210   5213   5214   5217     1  180.0000771  2.0083200  2
   5210   5213   5214   5217     1  0.0000000  1.2552000  3
   5210   5213   5224   5227     1  180.0000771  2.0083200  2
   5210   5213   5224   5227     1  0.0000000  1.2552000  3
   5213   5214   5217   5220     1  0.0000000  0.6508444  3
   5213   5224   5227   5230     1  0.0000000  0.6508444  3
   5214   5213   5224   5227     1  180.0000771  2.0083200  2
   5214   5213   5224   5227     1  0.0000000  1.2552000  3
   5214   5217   5220   5221     1  180.0000771  0.0000000  2
   5214   5217   5220   5222     1  180.0000771  0.0000000  2
   5217   5214   5213   5224     1  180.0000771  2.0083200  2
   5217   5214   5213   5224     1  0.0000000  1.2552000  3
   5224   5227   5230   5231     1  180.0000771  0.0000000  2
   5224   5227   5230   5232     1  180.0000771  0.0000000  2
   5235   5238   5241   5244     1  0.0000000  0.6508444  3
   5238   5241   5244   5245     1  180.0000771  2.0083200  2
   5238   5241   5244   5245     1  0.0000000  1.2552000  3
   5238   5241   5244   5255     1  180.0000771  2.0083200  2
   5238   5241   5244   5255     1  0.0000000  1.2552000  3
   5241   5244   5245   5248     1  180.0000771  2.0083200  2
   5241   5244   5245   5248     1  0.0000000  1.2552000  3
   5241   5244   5255   5258     1  180.0000771  2.0083200  2
   5241   5244   5255   5258     1  0.0000000  1.2552000  3
   5241   5238   5235   5265     1  0.0000000  0.6508444  3
   5244   5245   5248   5251     1  0.0000000  0.6508444  3
   5244   5255   5258   5261     1  0.0000000  0.6508444  3
   5245   5248   5251   5252     1  180.0000771  0.0000000  2
   5245   5248   5251   5253     1  180.0000771  0.0000000  2
   5245   5244   5255   5258     1  180.0000771  2.0083200  2
   5245   5244   5255   5258     1  0.0000000  1.2552000  3
   5248   5245   5244   5255     1  180.0000771  2.0083200  2
   5248   5245   5244   5255     1  0.0000000  1.2552000  3
   5255   5258   5261   5262     1  180.0000771  0.0000000  2
   5255   5258   5261   5263     1  180.0000771  0.0000000  2
   5266   5269   5272   5275     1  0.0000000  0.6508444  3
   5269   5272   5275   5276     1  180.0000771  2.0083200  2
   5269   5272   5275   5276     1  0.0000000  1.2552000  3
   5269   5272   5275   5286     1  180.0000771  2.0083200  2
   5269   5272   5275   5286     1  0.0000000  1.2552000  3
   5272   5269   5266   5296     1  0.0000000  0.6508444  3
   5272   5275   5276   5279     1  180.0000771  2.0083200  2
   5272   5275   5276   5279     1  0.0000000  1.2552000  3
   5272   5275   5286   5289     1  180.0000771  2.0083200  2
   5272   5275   5286   5289     1  0.0000000  1.2552000  3
   5275   5276   5279   5282     1  0.0000000  0.6508444  3
   5275   5286   5289   5292     1  0.0000000  0.6508444  3
   5276   5275   5286   5289     1  180.0000771  2.0083200  2
   5276   5275   5286   5289     1  0.0000000  1.2552000  3
   5276   5279   5282   5283     1  180.0000771  0.0000000  2
   5276   5279   5282   5284     1  180.0000771  0.0000000  2
   5279   5276   5275   5286     1  180.0000771  2.0083200  2
   5279   5276   5275   5286     1  0.0000000  1.2552000  3
   5286   5289   5292   5293     1  180.0000771  0.0000000  2
   5286   5289   5292   5294     1  180.0000771  0.0000000  2
   5297   5300   5303   5306     1  0.0000000  0.6508444  3
   5300   5303   5306   5307     1  180.0000771  2.0083200  2
   5300   5303   5306   5307     1  0.0000000  1.2552000  3
   5300   5303   5306   5317     1  180.0000771  2.0083200  2
   5300   5303   5306   5317     1  0.0000000  1.2552000  3
   5303   5306   5307   5310     1  180.0000771  2.0083200  2
   5303   5306   5307   5310     1  0.0000000  1.2552000  3
   5303   5306   5317   5320     1  180.0000771  2.0083200  2
   5303   5306   5317   5320     1  0.0000000  1.2552000  3
   5303   5300   5297   5327     1  0.0000000  0.6508444  3
   5306   5307   5310   5313     1  0.0000000  0.6508444  3
   5306   5317   5320   5323     1  0.0000000  0.6508444  3
   5307   5310   5313   5314     1  180.0000771  0.0000000  2
   5307   5310   5313   5315     1  180.0000771  0.0000000  2
   5307   5306   5317   5320     1  180.0000771  2.0083200  2
   5307   5306   5317   5320     1  0.0000000  1.2552000  3
   5310   5307   5306   5317     1  180.0000771  2.0083200  2
   5310   5307   5306   5317     1  0.0000000  1.2552000  3
   5317   5320   5323   5324     1  180.0000771  0.0000000  2
   5317   5320   5323   5325     1  180.0000771  0.0000000  2
   5328   5331   5334   5337     1  0.0000000  0.6508444  3
   5331   5334   5337   5338     1  180.0000771  2.0083200  2
   5331   5334   5337   5338     1  0.0000000  1.2552000  3
   5331   5334   5337   5348     1  180.0000771  2.0083200  2
   5331   5334   5337   5348     1  0.0000000  1.2552000  3
   5334   5331   5328   5358     1  0.0000000  0.6508444  3
   5334   5337   5338   5341     1  180.0000771  2.0083200  2
   5334   5337   5338   5341     1  0.0000000  1.2552000  3
   5334   5337   5348   5351     1  180.0000771  2.0083200  2
   5334   5337   5348   5351     1  0.0000000  1.2552000  3
   5337   5338   5341   5344     1  0.0000000  0.6508444  3
   5337   5348   5351   5354     1  0.0000000  0.6508444  3
   5338   5337   5348   5351     1  180.0000771  2.0083200  2
   5338   5337   5348   5351     1  0.0000000  1.2552000  3
   5338   5341   5344   5345     1  180.0000771  0.0000000  2
   5338   5341   5344   5346     1  180.0000771  0.0000000  2
   5341   5338   5337   5348     1  180.0000771  2.0083200  2
   5341   5338   5337   5348     1  0.0000000  1.2552000  3
   5348   5351   5354   5355     1  180.0000771  0.0000000  2
   5348   5351   5354   5356     1  180.0000771  0.0000000  2
   5359   5362   5365   5368     1  0.0000000  0.6508444  3
   5362   5365   5368   5369     1  180.0000771  2.0083200  2
   5362   5365   5368   5369     1  0.0000000  1.2552000  3
   5362   5365   5368   5379     1  180.0000771  2.0083200  2
   5362   5365   5368   5379     1  0.0000000  1.2552000  3
   5365   5368   5369   5372     1  180.0000771  2.0083200  2
   5365   5368   5369   5372     1  0.0000000  1.2552000  3
   5365   5368   5379   5382     1  180.0000771  2.0083200  2
   5365   5368   5379   5382     1  0.0000000  1.2552000  3
   5365   5362   5359   5389     1  0.0000000  0.6508444  3
   5368   5369   5372   5375     1  0.0000000  0.6508444  3
   5368   5379   5382   5385     1  0.0000000  0.6508444  3
   5369   5372   5375   5376     1  180.0000771  0.0000000  2
   5369   5372   5375   5377     1  180.0000771  0.0000000  2
   5369   5368   5379   5382     1  180.0000771  2.0083200  2
   5369   5368   5379   5382     1  0.0000000  1.2552000  3
   5372   5369   5368   5379     1  180.0000771  2.0083200  2
   5372   5369   5368   5379     1  0.0000000  1.2552000  3
   5379   5382   5385   5386     1  180.0000771  0.0000000  2
   5379   5382   5385   5387     1  180.0000771  0.0000000  2
   5390   5393   5396   5399     1  0.0000000  0.6508444  3
   5393   5396   5399   5400     1  180.0000771  2.0083200  2
   5393   5396   5399   5400     1  0.0000000  1.2552000  3
   5393   5396   5399   5410     1  180.0000771  2.0083200  2
   5393   5396   5399   5410     1  0.0000000  1.2552000  3
   5396   5393   5390   5420     1  0.0000000  0.6508444  3
   5396   5399   5400   5403     1  180.0000771  2.0083200  2
   5396   5399   5400   5403     1  0.0000000  1.2552000  3
   5396   5399   5410   5413     1  180.0000771  2.0083200  2
   5396   5399   5410   5413     1  0.0000000  1.2552000  3
   5399   5400   5403   5406     1  0.0000000  0.6508444  3
   5399   5410   5413   5416     1  0.0000000  0.6508444  3
   5400   5399   5410   5413     1  180.0000771  2.0083200  2
   5400   5399   5410   5413     1  0.0000000  1.2552000  3
   5400   5403   5406   5407     1  180.0000771  0.0000000  2
   5400   5403   5406   5408     1  180.0000771  0.0000000  2
   5403   5400   5399   5410     1  180.0000771  2.0083200  2
   5403   5400   5399   5410     1  0.0000000  1.2552000  3
   5410   5413   5416   5417     1  180.0000771  0.0000000  2
   5410   5413   5416   5418     1  180.0000771  0.0000000  2
   5421   5424   5427   5430     1  0.0000000  0.6508444  3
   5424   5427   5430   5431     1  180.0000771  2.0083200  2
   5424   5427   5430   5431     1  0.0000000  1.2552000  3
   5424   5427   5430   5441     1  180.0000771  2.0083200  2
   5424   5427   5430   5441     1  0.0000000  1.2552000  3
   5427   5430   5431   5434     1  180.0000771  2.0083200  2
   5427   5430   5431   5434     1  0.0000000  1.2552000  3
   5427   5430   5441   5444     1  180.0000771  2.0083200  2
   5427   5430   5441   5444     1  0.0000000  1.2552000  3
   5427   5424   5421   5451     1  0.0000000  0.6508444  3
   5430   5431   5434   5437     1  0.0000000  0.6508444  3
   5430   5441   5444   5447     1  0.0000000  0.6508444  3
   5431   5434   5437   5438     1  180.0000771  0.0000000  2
   5431   5434   5437   5439     1  180.0000771  0.0000000  2
   5431   5430   5441   5444     1  180.0000771  2.0083200  2
   5431   5430   5441   5444     1  0.0000000  1.2552000  3
   5434   5431   5430   5441     1  180.0000771  2.0083200  2
   5434   5431   5430   5441     1  0.0000000  1.2552000  3
   5441   5444   5447   5448     1  180.0000771  0.0000000  2
   5441   5444   5447   5449     1  180.0000771  0.0000000  2
   5452   5455   5458   5461     1  0.0000000  0.6508444  3
   5455   5458   5461   5462     1  180.0000771  2.0083200  2
   5455   5458   5461   5462     1  0.0000000  1.2552000  3
   5455   5458   5461   5472     1  180.0000771  2.0083200  2
   5455   5458   5461   5472     1  0.0000000  1.2552000  3
   5458   5455   5452   5482     1  0.0000000  0.6508444  3
   5458   5461   5462   5465     1  180.0000771  2.0083200  2
   5458   5461   5462   5465     1  0.0000000  1.2552000  3
   5458   5461   5472   5475     1  180.0000771  2.0083200  2
   5458   5461   5472   5475     1  0.0000000  1.2552000  3
   5461   5462   5465   5468     1  0.0000000  0.6508444  3
   5461   5472   5475   5478     1  0.0000000  0.6508444  3
   5462   5461   5472   5475     1  180.0000771  2.0083200  2
   5462   5461   5472   5475     1  0.0000000  1.2552000  3
   5462   5465   5468   5469     1  180.0000771  0.0000000  2
   5462   5465   5468   5470     1  180.0000771  0.0000000  2
   5465   5462   5461   5472     1  180.0000771  2.0083200  2
   5465   5462   5461   5472     1  0.0000000  1.2552000  3
   5472   5475   5478   5479     1  180.0000771  0.0000000  2
   5472   5475   5478   5480     1  180.0000771  0.0000000  2
   5483   5486   5489   5492     1  0.0000000  0.6508444  3
   5486   5489   5492   5493     1  180.0000771  2.0083200  2
   5486   5489   5492   5493     1  0.0000000  1.2552000  3
   5486   5489   5492   5503     1  180.0000771  2.0083200  2
   5486   5489   5492   5503     1  0.0000000  1.2552000  3
   5489   5492   5493   5496     1  180.0000771  2.0083200  2
   5489   5492   5493   5496     1  0.0000000  1.2552000  3
   5489   5492   5503   5506     1  180.0000771  2.0083200  2
   5489   5492   5503   5506     1  0.0000000  1.2552000  3
   5489   5486   5483   5513     1  0.0000000  0.6508444  3
   5492   5493   5496   5499     1  0.0000000  0.6508444  3
   5492   5503   5506   5509     1  0.0000000  0.6508444  3
   5493   5496   5499   5500     1  180.0000771  0.0000000  2
   5493   5496   5499   5501     1  180.0000771  0.0000000  2
   5493   5492   5503   5506     1  180.0000771  2.0083200  2
   5493   5492   5503   5506     1  0.0000000  1.2552000  3
   5496   5493   5492   5503     1  180.0000771  2.0083200  2
   5496   5493   5492   5503     1  0.0000000  1.2552000  3
   5503   5506   5509   5510     1  180.0000771  0.0000000  2
   5503   5506   5509   5511     1  180.0000771  0.0000000  2
   5514   5517   5520   5523     1  0.0000000  0.6508444  3
   5517   5520   5523   5524     1  180.0000771  2.0083200  2
   5517   5520   5523   5524     1  0.0000000  1.2552000  3
   5517   5520   5523   5534     1  180.0000771  2.0083200  2
   5517   5520   5523   5534     1  0.0000000  1.2552000  3
   5520   5517   5514   5544     1  0.0000000  0.6508444  3
   5520   5523   5524   5527     1  180.0000771  2.0083200  2
   5520   5523   5524   5527     1  0.0000000  1.2552000  3
   5520   5523   5534   5537     1  180.0000771  2.0083200  2
   5520   5523   5534   5537     1  0.0000000  1.2552000  3
   5523   5524   5527   5530     1  0.0000000  0.6508444  3
   5523   5534   5537   5540     1  0.0000000  0.6508444  3
   5524   5523   5534   5537     1  180.0000771  2.0083200  2
   5524   5523   5534   5537     1  0.0000000  1.2552000  3
   5524   5527   5530   5531     1  180.0000771  0.0000000  2
   5524   5527   5530   5532     1  180.0000771  0.0000000  2
   5527   5524   5523   5534     1  180.0000771  2.0083200  2
   5527   5524   5523   5534     1  0.0000000  1.2552000  3
   5534   5537   5540   5541     1  180.0000771  0.0000000  2
   5534   5537   5540   5542     1  180.0000771  0.0000000  2
   5545   5548   5551   5554     1  0.0000000  0.6508444  3
   5548   5551   5554   5555     1  180.0000771  2.0083200  2
   5548   5551   5554   5555     1  0.0000000  1.2552000  3
   5548   5551   5554   5565     1  180.0000771  2.0083200  2
   5548   5551   5554   5565     1  0.0000000  1.2552000  3
   5551   5554   5555   5558     1  180.0000771  2.0083200  2
   5551   5554   5555   5558     1  0.0000000  1.2552000  3
   5551   5554   5565   5568     1  180.0000771  2.0083200  2
   5551   5554   5565   5568     1  0.0000000  1.2552000  3
   5551   5548   5545   5575     1  0.0000000  0.6508444  3
   5554   5555   5558   5561     1  0.0000000  0.6508444  3
   5554   5565   5568   5571     1  0.0000000  0.6508444  3
   5555   5558   5561   5562     1  180.0000771  0.0000000  2
   5555   5558   5561   5563     1  180.0000771  0.0000000  2
   5555   5554   5565   5568     1  180.0000771  2.0083200  2
   5555   5554   5565   5568     1  0.0000000  1.2552000  3
   5558   5555   5554   5565     1  180.0000771  2.0083200  2
   5558   5555   5554   5565     1  0.0000000  1.2552000  3
   5565   5568   5571   5572     1  180.0000771  0.0000000  2
   5565   5568   5571   5573     1  180.0000771  0.0000000  2
   5576   5579   5582   5585     1  0.0000000  0.6508444  3
   5579   5582   5585   5586     1  180.0000771  2.0083200  2
   5579   5582   5585   5586     1  0.0000000  1.2552000  3
   5579   5582   5585   5596     1  180.0000771  2.0083200  2
   5579   5582   5585   5596     1  0.0000000  1.2552000  3
   5582   5579   5576   5606     1  0.0000000  0.6508444  3
   5582   5585   5586   5589     1  180.0000771  2.0083200  2
   5582   5585   5586   5589     1  0.0000000  1.2552000  3
   5582   5585   5596   5599     1  180.0000771  2.0083200  2
   5582   5585   5596   5599     1  0.0000000  1.2552000  3
   5585   5586   5589   5592     1  0.0000000  0.6508444  3
   5585   5596   5599   5602     1  0.0000000  0.6508444  3
   5586   5585   5596   5599     1  180.0000771  2.0083200  2
   5586   5585   5596   5599     1  0.0000000  1.2552000  3
   5586   5589   5592   5593     1  180.0000771  0.0000000  2
   5586   5589   5592   5594     1  180.0000771  0.0000000  2
   5589   5586   5585   5596     1  180.0000771  2.0083200  2
   5589   5586   5585   5596     1  0.0000000  1.2552000  3
   5596   5599   5602   5603     1  180.0000771  0.0000000  2
   5596   5599   5602   5604     1  180.0000771  0.0000000  2
   5607   5610   5613   5616     1  0.0000000  0.6508444  3
   5610   5613   5616   5617     1  180.0000771  2.0083200  2
   5610   5613   5616   5617     1  0.0000000  1.2552000  3
   5610   5613   5616   5627     1  180.0000771  2.0083200  2
   5610   5613   5616   5627     1  0.0000000  1.2552000  3
   5613   5616   5617   5620     1  180.0000771  2.0083200  2
   5613   5616   5617   5620     1  0.0000000  1.2552000  3
   5613   5616   5627   5630     1  180.0000771  2.0083200  2
   5613   5616   5627   5630     1  0.0000000  1.2552000  3
   5613   5610   5607   5637     1  0.0000000  0.6508444  3
   5616   5617   5620   5623     1  0.0000000  0.6508444  3
   5616   5627   5630   5633     1  0.0000000  0.6508444  3
   5617   5620   5623   5624     1  180.0000771  0.0000000  2
   5617   5620   5623   5625     1  180.0000771  0.0000000  2
   5617   5616   5627   5630     1  180.0000771  2.0083200  2
   5617   5616   5627   5630     1  0.0000000  1.2552000  3
   5620   5617   5616   5627     1  180.0000771  2.0083200  2
   5620   5617   5616   5627     1  0.0000000  1.2552000  3
   5627   5630   5633   5634     1  180.0000771  0.0000000  2
   5627   5630   5633   5635     1  180.0000771  0.0000000  2
   5638   5641   5644   5647     1  0.0000000  0.6508444  3
   5641   5644   5647   5648     1  180.0000771  2.0083200  2
   5641   5644   5647   5648     1  0.0000000  1.2552000  3
   5641   5644   5647   5658     1  180.0000771  2.0083200  2
   5641   5644   5647   5658     1  0.0000000  1.2552000  3
   5644   5641   5638   5668     1  0.0000000  0.6508444  3
   5644   5647   5648   5651     1  180.0000771  2.0083200  2
   5644   5647   5648   5651     1  0.0000000  1.2552000  3
   5644   5647   5658   5661     1  180.0000771  2.0083200  2
   5644   5647   5658   5661     1  0.0000000  1.2552000  3
   5647   5648   5651   5654     1  0.0000000  0.6508444  3
   5647   5658   5661   5664     1  0.0000000  0.6508444  3
   5648   5647   5658   5661     1  180.0000771  2.0083200  2
   5648   5647   5658   5661     1  0.0000000  1.2552000  3
   5648   5651   5654   5655     1  180.0000771  0.0000000  2
   5648   5651   5654   5656     1  180.0000771  0.0000000  2
   5651   5648   5647   5658     1  180.0000771  2.0083200  2
   5651   5648   5647   5658     1  0.0000000  1.2552000  3
   5658   5661   5664   5665     1  180.0000771  0.0000000  2
   5658   5661   5664   5666     1  180.0000771  0.0000000  2
   5669   5672   5675   5678     1  0.0000000  0.6508444  3
   5672   5675   5678   5679     1  180.0000771  2.0083200  2
   5672   5675   5678   5679     1  0.0000000  1.2552000  3
   5672   5675   5678   5689     1  180.0000771  2.0083200  2
   5672   5675   5678   5689     1  0.0000000  1.2552000  3
   5675   5678   5679   5682     1  180.0000771  2.0083200  2
   5675   5678   5679   5682     1  0.0000000  1.2552000  3
   5675   5678   5689   5692     1  180.0000771  2.0083200  2
   5675   5678   5689   5692     1  0.0000000  1.2552000  3
   5675   5672   5669   5699     1  0.0000000  0.6508444  3
   5678   5679   5682   5685     1  0.0000000  0.6508444  3
   5678   5689   5692   5695     1  0.0000000  0.6508444  3
   5679   5682   5685   5686     1  180.0000771  0.0000000  2
   5679   5682   5685   5687     1  180.0000771  0.0000000  2
   5679   5678   5689   5692     1  180.0000771  2.0083200  2
   5679   5678   5689   5692     1  0.0000000  1.2552000  3
   5682   5679   5678   5689     1  180.0000771  2.0083200  2
   5682   5679   5678   5689     1  0.0000000  1.2552000  3
   5689   5692   5695   5696     1  180.0000771  0.0000000  2
   5689   5692   5695   5697     1  180.0000771  0.0000000  2
   5700   5703   5706   5709     1  0.0000000  0.6508444  3
   5703   5706   5709   5710     1  180.0000771  2.0083200  2
   5703   5706   5709   5710     1  0.0000000  1.2552000  3
   5703   5706   5709   5720     1  180.0000771  2.0083200  2
   5703   5706   5709   5720     1  0.0000000  1.2552000  3
   5706   5703   5700   5730     1  0.0000000  0.6508444  3
   5706   5709   5710   5713     1  180.0000771  2.0083200  2
   5706   5709   5710   5713     1  0.0000000  1.2552000  3
   5706   5709   5720   5723     1  180.0000771  2.0083200  2
   5706   5709   5720   5723     1  0.0000000  1.2552000  3
   5709   5710   5713   5716     1  0.0000000  0.6508444  3
   5709   5720   5723   5726     1  0.0000000  0.6508444  3
   5710   5709   5720   5723     1  180.0000771  2.0083200  2
   5710   5709   5720   5723     1  0.0000000  1.2552000  3
   5710   5713   5716   5717     1  180.0000771  0.0000000  2
   5710   5713   5716   5718     1  180.0000771  0.0000000  2
   5713   5710   5709   5720     1  180.0000771  2.0083200  2
   5713   5710   5709   5720     1  0.0000000  1.2552000  3
   5720   5723   5726   5727     1  180.0000771  0.0000000  2
   5720   5723   5726   5728     1  180.0000771  0.0000000  2
   5731   5734   5737   5740     1  0.0000000  0.6508444  3
   5734   5737   5740   5741     1  180.0000771  2.0083200  2
   5734   5737   5740   5741     1  0.0000000  1.2552000  3
   5734   5737   5740   5751     1  180.0000771  2.0083200  2
   5734   5737   5740   5751     1  0.0000000  1.2552000  3
   5737   5740   5741   5744     1  180.0000771  2.0083200  2
   5737   5740   5741   5744     1  0.0000000  1.2552000  3
   5737   5740   5751   5754     1  180.0000771  2.0083200  2
   5737   5740   5751   5754     1  0.0000000  1.2552000  3
   5737   5734   5731   5761     1  0.0000000  0.6508444  3
   5740   5741   5744   5747     1  0.0000000  0.6508444  3
   5740   5751   5754   5757     1  0.0000000  0.6508444  3
   5741   5744   5747   5748     1  180.0000771  0.0000000  2
   5741   5744   5747   5749     1  180.0000771  0.0000000  2
   5741   5740   5751   5754     1  180.0000771  2.0083200  2
   5741   5740   5751   5754     1  0.0000000  1.2552000  3
   5744   5741   5740   5751     1  180.0000771  2.0083200  2
   5744   5741   5740   5751     1  0.0000000  1.2552000  3
   5751   5754   5757   5758     1  180.0000771  0.0000000  2
   5751   5754   5757   5759     1  180.0000771  0.0000000  2
   5762   5765   5768   5771     1  0.0000000  0.6508444  3
   5765   5768   5771   5772     1  180.0000771  2.0083200  2
   5765   5768   5771   5772     1  0.0000000  1.2552000  3
   5765   5768   5771   5782     1  180.0000771  2.0083200  2
   5765   5768   5771   5782     1  0.0000000  1.2552000  3
   5768   5765   5762   5792     1  0.0000000  0.6508444  3
   5768   5771   5772   5775     1  180.0000771  2.0083200  2
   5768   5771   5772   5775     1  0.0000000  1.2552000  3
   5768   5771   5782   5785     1  180.0000771  2.0083200  2
   5768   5771   5782   5785     1  0.0000000  1.2552000  3
   5771   5772   5775   5778     1  0.0000000  0.6508444  3
   5771   5782   5785   5788     1  0.0000000  0.6508444  3
   5772   5771   5782   5785     1  180.0000771  2.0083200  2
   5772   5771   5782   5785     1  0.0000000  1.2552000  3
   5772   5775   5778   5779     1  180.0000771  0.0000000  2
   5772   5775   5778   5780     1  180.0000771  0.0000000  2
   5775   5772   5771   5782     1  180.0000771  2.0083200  2
   5775   5772   5771   5782     1  0.0000000  1.2552000  3
   5782   5785   5788   5789     1  180.0000771  0.0000000  2
   5782   5785   5788   5790     1  180.0000771  0.0000000  2
   5793   5796   5799   5802     1  0.0000000  0.6508444  3
   5796   5799   5802   5803     1  180.0000771  2.0083200  2
   5796   5799   5802   5803     1  0.0000000  1.2552000  3
   5796   5799   5802   5813     1  180.0000771  2.0083200  2
   5796   5799   5802   5813     1  0.0000000  1.2552000  3
   5799   5802   5803   5806     1  180.0000771  2.0083200  2
   5799   5802   5803   5806     1  0.0000000  1.2552000  3
   5799   5802   5813   5816     1  180.0000771  2.0083200  2
   5799   5802   5813   5816     1  0.0000000  1.2552000  3
   5799   5796   5793   5823     1  0.0000000  0.6508444  3
   5802   5803   5806   5809     1  0.0000000  0.6508444  3
   5802   5813   5816   5819     1  0.0000000  0.6508444  3
   5803   5806   5809   5810     1  180.0000771  0.0000000  2
   5803   5806   5809   5811     1  180.0000771  0.0000000  2
   5803   5802   5813   5816     1  180.0000771  2.0083200  2
   5803   5802   5813   5816     1  0.0000000  1.2552000  3
   5806   5803   5802   5813     1  180.0000771  2.0083200  2
   5806   5803   5802   5813     1  0.0000000  1.2552000  3
   5813   5816   5819   5820     1  180.0000771  0.0000000  2
   5813   5816   5819   5821     1  180.0000771  0.0000000  2
   5824   5827   5830   5833     1  0.0000000  0.6508444  3
   5827   5830   5833   5834     1  180.0000771  2.0083200  2
   5827   5830   5833   5834     1  0.0000000  1.2552000  3
   5827   5830   5833   5844     1  180.0000771  2.0083200  2
   5827   5830   5833   5844     1  0.0000000  1.2552000  3
   5830   5827   5824   5854     1  0.0000000  0.6508444  3
   5830   5833   5834   5837     1  180.0000771  2.0083200  2
   5830   5833   5834   5837     1  0.0000000  1.2552000  3
   5830   5833   5844   5847     1  180.0000771  2.0083200  2
   5830   5833   5844   5847     1  0.0000000  1.2552000  3
   5833   5834   5837   5840     1  0.0000000  0.6508444  3
   5833   5844   5847   5850     1  0.0000000  0.6508444  3
   5834   5833   5844   5847     1  180.0000771  2.0083200  2
   5834   5833   5844   5847     1  0.0000000  1.2552000  3
   5834   5837   5840   5841     1  180.0000771  0.0000000  2
   5834   5837   5840   5842     1  180.0000771  0.0000000  2
   5837   5834   5833   5844     1  180.0000771  2.0083200  2
   5837   5834   5833   5844     1  0.0000000  1.2552000  3
   5844   5847   5850   5851     1  180.0000771  0.0000000  2
   5844   5847   5850   5852     1  180.0000771  0.0000000  2
   5855   5858   5861   5864     1  0.0000000  0.6508444  3
   5858   5861   5864   5865     1  180.0000771  2.0083200  2
   5858   5861   5864   5865     1  0.0000000  1.2552000  3
   5858   5861   5864   5875     1  180.0000771  2.0083200  2
   5858   5861   5864   5875     1  0.0000000  1.2552000  3
   5861   5864   5865   5868     1  180.0000771  2.0083200  2
   5861   5864   5865   5868     1  0.0000000  1.2552000  3
   5861   5864   5875   5878     1  180.0000771  2.0083200  2
   5861   5864   5875   5878     1  0.0000000  1.2552000  3
   5861   5858   5855   5885     1  0.0000000  0.6508444  3
   5864   5865   5868   5871     1  0.0000000  0.6508444  3
   5864   5875   5878   5881     1  0.0000000  0.6508444  3
   5865   5868   5871   5872     1  180.0000771  0.0000000  2
   5865   5868   5871   5873     1  180.0000771  0.0000000  2
   5865   5864   5875   5878     1  180.0000771  2.0083200  2
   5865   5864   5875   5878     1  0.0000000  1.2552000  3
   5868   5865   5864   5875     1  180.0000771  2.0083200  2
   5868   5865   5864   5875     1  0.0000000  1.2552000  3
   5875   5878   5881   5882     1  180.0000771  0.0000000  2
   5875   5878   5881   5883     1  180.0000771  0.0000000  2
   5886   5889   5892   5895     1  0.0000000  0.6508444  3
   5889   5892   5895   5896     1  180.0000771  2.0083200  2
   5889   5892   5895   5896     1  0.0000000  1.2552000  3
   5889   5892   5895   5906     1  180.0000771  2.0083200  2
   5889   5892   5895   5906     1  0.0000000  1.2552000  3
   5892   5889   5886   5916     1  0.0000000  0.6508444  3
   5892   5895   5896   5899     1  180.0000771  2.0083200  2
   5892   5895   5896   5899     1  0.0000000  1.2552000  3
   5892   5895   5906   5909     1  180.0000771  2.0083200  2
   5892   5895   5906   5909     1  0.0000000  1.2552000  3
   5895   5896   5899   5902     1  0.0000000  0.6508444  3
   5895   5906   5909   5912     1  0.0000000  0.6508444  3
   5896   5895   5906   5909     1  180.0000771  2.0083200  2
   5896   5895   5906   5909     1  0.0000000  1.2552000  3
   5896   5899   5902   5903     1  180.0000771  0.0000000  2
   5896   5899   5902   5904     1  180.0000771  0.0000000  2
   5899   5896   5895   5906     1  180.0000771  2.0083200  2
   5899   5896   5895   5906     1  0.0000000  1.2552000  3
   5906   5909   5912   5913     1  180.0000771  0.0000000  2
   5906   5909   5912   5914     1  180.0000771  0.0000000  2
   5917   5920   5923   5926     1  0.0000000  0.6508444  3
   5920   5923   5926   5927     1  180.0000771  2.0083200  2
   5920   5923   5926   5927     1  0.0000000  1.2552000  3
   5920   5923   5926   5937     1  180.0000771  2.0083200  2
   5920   5923   5926   5937     1  0.0000000  1.2552000  3
   5923   5926   5927   5930     1  180.0000771  2.0083200  2
   5923   5926   5927   5930     1  0.0000000  1.2552000  3
   5923   5926   5937   5940     1  180.0000771  2.0083200  2
   5923   5926   5937   5940     1  0.0000000  1.2552000  3
   5923   5920   5917   5947     1  0.0000000  0.6508444  3
   5926   5927   5930   5933     1  0.0000000  0.6508444  3
   5926   5937   5940   5943     1  0.0000000  0.6508444  3
   5927   5930   5933   5934     1  180.0000771  0.0000000  2
   5927   5930   5933   5935     1  180.0000771  0.0000000  2
   5927   5926   5937   5940     1  180.0000771  2.0083200  2
   5927   5926   5937   5940     1  0.0000000  1.2552000  3
   5930   5927   5926   5937     1  180.0000771  2.0083200  2
   5930   5927   5926   5937     1  0.0000000  1.2552000  3
   5937   5940   5943   5944     1  180.0000771  0.0000000  2
   5937   5940   5943   5945     1  180.0000771  0.0000000  2
   5948   5951   5954   5957     1  0.0000000  0.6508444  3
   5951   5954   5957   5958     1  180.0000771  2.0083200  2
   5951   5954   5957   5958     1  0.0000000  1.2552000  3
   5951   5954   5957   5968     1  180.0000771  2.0083200  2
   5951   5954   5957   5968     1  0.0000000  1.2552000  3
   5954   5951   5948   5978     1  0.0000000  0.6508444  3
   5954   5957   5958   5961     1  180.0000771  2.0083200  2
   5954   5957   5958   5961     1  0.0000000  1.2552000  3
   5954   5957   5968   5971     1  180.0000771  2.0083200  2
   5954   5957   5968   5971     1  0.0000000  1.2552000  3
   5957   5958   5961   5964     1  0.0000000  0.6508444  3
   5957   5968   5971   5974     1  0.0000000  0.6508444  3
   5958   5957   5968   5971     1  180.0000771  2.0083200  2
   5958   5957   5968   5971     1  0.0000000  1.2552000  3
   5958   5961   5964   5965     1  180.0000771  0.0000000  2
   5958   5961   5964   5966     1  180.0000771  0.0000000  2
   5961   5958   5957   5968     1  180.0000771  2.0083200  2
   5961   5958   5957   5968     1  0.0000000  1.2552000  3
   5968   5971   5974   5975     1  180.0000771  0.0000000  2
   5968   5971   5974   5976     1  180.0000771  0.0000000  2
   5979   5982   5985   5988     1  0.0000000  0.6508444  3
   5982   5985   5988   5989     1  180.0000771  2.0083200  2
   5982   5985   5988   5989     1  0.0000000  1.2552000  3
   5982   5985   5988   5999     1  180.0000771  2.0083200  2
   5982   5985   5988   5999     1  0.0000000  1.2552000  3
   5985   5988   5989   5992     1  180.0000771  2.0083200  2
   5985   5988   5989   5992     1  0.0000000  1.2552000  3
   5985   5988   5999   6002     1  180.0000771  2.0083200  2
   5985   5988   5999   6002     1  0.0000000  1.2552000  3
   5985   5982   5979   6009     1  0.0000000  0.6508444  3
   5988   5989   5992   5995     1  0.0000000  0.6508444  3
   5988   5999   6002   6005     1  0.0000000  0.6508444  3
   5989   5992   5995   5996     1  180.0000771  0.0000000  2
   5989   5992   5995   5997     1  180.0000771  0.0000000  2
   5989   5988   5999   6002     1  180.0000771  2.0083200  2
   5989   5988   5999   6002     1  0.0000000  1.2552000  3
   5992   5989   5988   5999     1  180.0000771  2.0083200  2
   5992   5989   5988   5999     1  0.0000000  1.2552000  3
   5999   6002   6005   6006     1  180.0000771  0.0000000  2
   5999   6002   6005   6007     1  180.0000771  0.0000000  2
   6010   6013   6016   6019     1  0.0000000  0.6508444  3
   6013   6016   6019   6020     1  180.0000771  2.0083200  2
   6013   6016   6019   6020     1  0.0000000  1.2552000  3
   6013   6016   6019   6030     1  180.0000771  2.0083200  2
   6013   6016   6019   6030     1  0.0000000  1.2552000  3
   6016   6013   6010   6040     1  0.0000000  0.6508444  3
   6016   6019   6020   6023     1  180.0000771  2.0083200  2
   6016   6019   6020   6023     1  0.0000000  1.2552000  3
   6016   6019   6030   6033     1  180.0000771  2.0083200  2
   6016   6019   6030   6033     1  0.0000000  1.2552000  3
   6019   6020   6023   6026     1  0.0000000  0.6508444  3
   6019   6030   6033   6036     1  0.0000000  0.6508444  3
   6020   6019   6030   6033     1  180.0000771  2.0083200  2
   6020   6019   6030   6033     1  0.0000000  1.2552000  3
   6020   6023   6026   6027     1  180.0000771  0.0000000  2
   6020   6023   6026   6028     1  180.0000771  0.0000000  2
   6023   6020   6019   6030     1  180.0000771  2.0083200  2
   6023   6020   6019   6030     1  0.0000000  1.2552000  3
   6030   6033   6036   6037     1  180.0000771  0.0000000  2
   6030   6033   6036   6038     1  180.0000771  0.0000000  2
   6041   6044   6047   6050     1  0.0000000  0.6508444  3
   6044   6047   6050   6051     1  180.0000771  2.0083200  2
   6044   6047   6050   6051     1  0.0000000  1.2552000  3
   6044   6047   6050   6061     1  180.0000771  2.0083200  2
   6044   6047   6050   6061     1  0.0000000  1.2552000  3
   6047   6050   6051   6054     1  180.0000771  2.0083200  2
   6047   6050   6051   6054     1  0.0000000  1.2552000  3
   6047   6050   6061   6064     1  180.0000771  2.0083200  2
   6047   6050   6061   6064     1  0.0000000  1.2552000  3
   6047   6044   6041   6071     1  0.0000000  0.6508444  3
   6050   6051   6054   6057     1  0.0000000  0.6508444  3
   6050   6061   6064   6067     1  0.0000000  0.6508444  3
   6051   6054   6057   6058     1  180.0000771  0.0000000  2
   6051   6054   6057   6059     1  180.0000771  0.0000000  2
   6051   6050   6061   6064     1  180.0000771  2.0083200  2
   6051   6050   6061   6064     1  0.0000000  1.2552000  3
   6054   6051   6050   6061     1  180.0000771  2.0083200  2
   6054   6051   6050   6061     1  0.0000000  1.2552000  3
   6061   6064   6067   6068     1  180.0000771  0.0000000  2
   6061   6064   6067   6069     1  180.0000771  0.0000000  2
   6072   6075   6078   6081     1  0.0000000  0.6508444  3
   6075   6078   6081   6082     1  180.0000771  2.0083200  2
   6075   6078   6081   6082     1  0.0000000  1.2552000  3
   6075   6078   6081   6092     1  180.0000771  2.0083200  2
   6075   6078   6081   6092     1  0.0000000  1.2552000  3
   6078   6075   6072   6102     1  0.0000000  0.6508444  3
   6078   6081   6082   6085     1  180.0000771  2.0083200  2
   6078   6081   6082   6085     1  0.0000000  1.2552000  3
   6078   6081   6092   6095     1  180.0000771  2.0083200  2
   6078   6081   6092   6095     1  0.0000000  1.2552000  3
   6081   6082   6085   6088     1  0.0000000  0.6508444  3
   6081   6092   6095   6098     1  0.0000000  0.6508444  3
   6082   6081   6092   6095     1  180.0000771  2.0083200  2
   6082   6081   6092   6095     1  0.0000000  1.2552000  3
   6082   6085   6088   6089     1  180.0000771  0.0000000  2
   6082   6085   6088   6090     1  180.0000771  0.0000000  2
   6085   6082   6081   6092     1  180.0000771  2.0083200  2
   6085   6082   6081   6092     1  0.0000000  1.2552000  3
   6092   6095   6098   6099     1  180.0000771  0.0000000  2
   6092   6095   6098   6100     1  180.0000771  0.0000000  2
   6103   6106   6109   6112     1  0.0000000  0.6508444  3
   6106   6109   6112   6113     1  180.0000771  2.0083200  2
   6106   6109   6112   6113     1  0.0000000  1.2552000  3
   6106   6109   6112   6123     1  180.0000771  2.0083200  2
   6106   6109   6112   6123     1  0.0000000  1.2552000  3
   6109   6112   6113   6116     1  180.0000771  2.0083200  2
   6109   6112   6113   6116     1  0.0000000  1.2552000  3
   6109   6112   6123   6126     1  180.0000771  2.0083200  2
   6109   6112   6123   6126     1  0.0000000  1.2552000  3
   6109   6106   6103   6133     1  0.0000000  0.6508444  3
   6112   6113   6116   6119     1  0.0000000  0.6508444  3
   6112   6123   6126   6129     1  0.0000000  0.6508444  3
   6113   6116   6119   6120     1  180.0000771  0.0000000  2
   6113   6116   6119   6121     1  180.0000771  0.0000000  2
   6113   6112   6123   6126     1  180.0000771  2.0083200  2
   6113   6112   6123   6126     1  0.0000000  1.2552000  3
   6116   6113   6112   6123     1  180.0000771  2.0083200  2
   6116   6113   6112   6123     1  0.0000000  1.2552000  3
   6123   6126   6129   6130     1  180.0000771  0.0000000  2
   6123   6126   6129   6131     1  180.0000771  0.0000000  2
   6134   6137   6140   6143     1  0.0000000  0.6508444  3
   6137   6140   6143   6144     1  180.0000771  2.0083200  2
   6137   6140   6143   6144     1  0.0000000  1.2552000  3
   6137   6140   6143   6154     1  180.0000771  2.0083200  2
   6137   6140   6143   6154     1  0.0000000  1.2552000  3
   6140   6137   6134   6164     1  0.0000000  0.6508444  3
   6140   6143   6144   6147     1  180.0000771  2.0083200  2
   6140   6143   6144   6147     1  0.0000000  1.2552000  3
   6140   6143   6154   6157     1  180.0000771  2.0083200  2
   6140   6143   6154   6157     1  0.0000000  1.2552000  3
   6143   6144   6147   6150     1  0.0000000  0.6508444  3
   6143   6154   6157   6160     1  0.0000000  0.6508444  3
   6144   6143   6154   6157     1  180.0000771  2.0083200  2
   6144   6143   6154   6157     1  0.0000000  1.2552000  3
   6144   6147   6150   6151     1  180.0000771  0.0000000  2
   6144   6147   6150   6152     1  180.0000771  0.0000000  2
   6147   6144   6143   6154     1  180.0000771  2.0083200  2
   6147   6144   6143   6154     1  0.0000000  1.2552000  3
   6154   6157   6160   6161     1  180.0000771  0.0000000  2
   6154   6157   6160   6162     1  180.0000771  0.0000000  2
   6165   6168   6171   6174     1  0.0000000  0.6508444  3
   6168   6171   6174   6175     1  180.0000771  2.0083200  2
   6168   6171   6174   6175     1  0.0000000  1.2552000  3
   6168   6171   6174   6185     1  180.0000771  2.0083200  2
   6168   6171   6174   6185     1  0.0000000  1.2552000  3
   6171   6174   6175   6178     1  180.0000771  2.0083200  2
   6171   6174   6175   6178     1  0.0000000  1.2552000  3
   6171   6174   6185   6188     1  180.0000771  2.0083200  2
   6171   6174   6185   6188     1  0.0000000  1.2552000  3
   6171   6168   6165   6195     1  0.0000000  0.6508444  3
   6174   6175   6178   6181     1  0.0000000  0.6508444  3
   6174   6185   6188   6191     1  0.0000000  0.6508444  3
   6175   6178   6181   6182     1  180.0000771  0.0000000  2
   6175   6178   6181   6183     1  180.0000771  0.0000000  2
   6175   6174   6185   6188     1  180.0000771  2.0083200  2
   6175   6174   6185   6188     1  0.0000000  1.2552000  3
   6178   6175   6174   6185     1  180.0000771  2.0083200  2
   6178   6175   6174   6185     1  0.0000000  1.2552000  3
   6185   6188   6191   6192     1  180.0000771  0.0000000  2
   6185   6188   6191   6193     1  180.0000771  0.0000000  2
   6196   6199   6202   6205     1  0.0000000  0.6508444  3
   6199   6202   6205   6206     1  180.0000771  2.0083200  2
   6199   6202   6205   6206     1  0.0000000  1.2552000  3
   6199   6202   6205   6216     1  180.0000771  2.0083200  2
   6199   6202   6205   6216     1  0.0000000  1.2552000  3
   6202   6199   6196   6226     1  0.0000000  0.6508444  3
   6202   6205   6206   6209     1  180.0000771  2.0083200  2
   6202   6205   6206   6209     1  0.0000000  1.2552000  3
   6202   6205   6216   6219     1  180.0000771  2.0083200  2
   6202   6205   6216   6219     1  0.0000000  1.2552000  3
   6205   6206   6209   6212     1  0.0000000  0.6508444  3
   6205   6216   6219   6222     1  0.0000000  0.6508444  3
   6206   6205   6216   6219     1  180.0000771  2.0083200  2
   6206   6205   6216   6219     1  0.0000000  1.2552000  3
   6206   6209   6212   6213     1  180.0000771  0.0000000  2
   6206   6209   6212   6214     1  180.0000771  0.0000000  2
   6209   6206   6205   6216     1  180.0000771  2.0083200  2
   6209   6206   6205   6216     1  0.0000000  1.2552000  3
   6216   6219   6222   6223     1  180.0000771  0.0000000  2
   6216   6219   6222   6224     1  180.0000771  0.0000000  2
   6227   6230   6233   6236     1  0.0000000  0.6508444  3
   6230   6233   6236   6237     1  180.0000771  2.0083200  2
   6230   6233   6236   6237     1  0.0000000  1.2552000  3
   6230   6233   6236   6247     1  180.0000771  2.0083200  2
   6230   6233   6236   6247     1  0.0000000  1.2552000  3
   6233   6236   6237   6240     1  180.0000771  2.0083200  2
   6233   6236   6237   6240     1  0.0000000  1.2552000  3
   6233   6236   6247   6250     1  180.0000771  2.0083200  2
   6233   6236   6247   6250     1  0.0000000  1.2552000  3
   6233   6230   6227   6257     1  0.0000000  0.6508444  3
   6236   6237   6240   6243     1  0.0000000  0.6508444  3
   6236   6247   6250   6253     1  0.0000000  0.6508444  3
   6237   6240   6243   6244     1  180.0000771  0.0000000  2
   6237   6240   6243   6245     1  180.0000771  0.0000000  2
   6237   6236   6247   6250     1  180.0000771  2.0083200  2
   6237   6236   6247   6250     1  0.0000000  1.2552000  3
   6240   6237   6236   6247     1  180.0000771  2.0083200  2
   6240   6237   6236   6247     1  0.0000000  1.2552000  3
   6247   6250   6253   6254     1  180.0000771  0.0000000  2
   6247   6250   6253   6255     1  180.0000771  0.0000000  2
   6258   6261   6264   6267     1  0.0000000  0.6508444  3
   6261   6264   6267   6268     1  180.0000771  2.0083200  2
   6261   6264   6267   6268     1  0.0000000  1.2552000  3
   6261   6264   6267   6278     1  180.0000771  2.0083200  2
   6261   6264   6267   6278     1  0.0000000  1.2552000  3
   6264   6261   6258   6288     1  0.0000000  0.6508444  3
   6264   6267   6268   6271     1  180.0000771  2.0083200  2
   6264   6267   6268   6271     1  0.0000000  1.2552000  3
   6264   6267   6278   6281     1  180.0000771  2.0083200  2
   6264   6267   6278   6281     1  0.0000000  1.2552000  3
   6267   6268   6271   6274     1  0.0000000  0.6508444  3
   6267   6278   6281   6284     1  0.0000000  0.6508444  3
   6268   6267   6278   6281     1  180.0000771  2.0083200  2
   6268   6267   6278   6281     1  0.0000000  1.2552000  3
   6268   6271   6274   6275     1  180.0000771  0.0000000  2
   6268   6271   6274   6276     1  180.0000771  0.0000000  2
   6271   6268   6267   6278     1  180.0000771  2.0083200  2
   6271   6268   6267   6278     1  0.0000000  1.2552000  3
   6278   6281   6284   6285     1  180.0000771  0.0000000  2
   6278   6281   6284   6286     1  180.0000771  0.0000000  2
   6289   6292   6295   6298     1  0.0000000  0.6508444  3
   6292   6295   6298   6299     1  180.0000771  2.0083200  2
   6292   6295   6298   6299     1  0.0000000  1.2552000  3
   6292   6295   6298   6309     1  180.0000771  2.0083200  2
   6292   6295   6298   6309     1  0.0000000  1.2552000  3
   6295   6298   6299   6302     1  180.0000771  2.0083200  2
   6295   6298   6299   6302     1  0.0000000  1.2552000  3
   6295   6298   6309   6312     1  180.0000771  2.0083200  2
   6295   6298   6309   6312     1  0.0000000  1.2552000  3
   6295   6292   6289   6319     1  0.0000000  0.6508444  3
   6298   6299   6302   6305     1  0.0000000  0.6508444  3
   6298   6309   6312   6315     1  0.0000000  0.6508444  3
   6299   6302   6305   6306     1  180.0000771  0.0000000  2
   6299   6302   6305   6307     1  180.0000771  0.0000000  2
   6299   6298   6309   6312     1  180.0000771  2.0083200  2
   6299   6298   6309   6312     1  0.0000000  1.2552000  3
   6302   6299   6298   6309     1  180.0000771  2.0083200  2
   6302   6299   6298   6309     1  0.0000000  1.2552000  3
   6309   6312   6315   6316     1  180.0000771  0.0000000  2
   6309   6312   6315   6317     1  180.0000771  0.0000000  2
   6320   6323   6326   6329     1  0.0000000  0.6508444  3
   6323   6326   6329   6330     1  180.0000771  2.0083200  2
   6323   6326   6329   6330     1  0.0000000  1.2552000  3
   6323   6326   6329   6340     1  180.0000771  2.0083200  2
   6323   6326   6329   6340     1  0.0000000  1.2552000  3
   6326   6323   6320   6350     1  0.0000000  0.6508444  3
   6326   6329   6330   6333     1  180.0000771  2.0083200  2
   6326   6329   6330   6333     1  0.0000000  1.2552000  3
   6326   6329   6340   6343     1  180.0000771  2.0083200  2
   6326   6329   6340   6343     1  0.0000000  1.2552000  3
   6329   6330   6333   6336     1  0.0000000  0.6508444  3
   6329   6340   6343   6346     1  0.0000000  0.6508444  3
   6330   6329   6340   6343     1  180.0000771  2.0083200  2
   6330   6329   6340   6343     1  0.0000000  1.2552000  3
   6330   6333   6336   6337     1  180.0000771  0.0000000  2
   6330   6333   6336   6338     1  180.0000771  0.0000000  2
   6333   6330   6329   6340     1  180.0000771  2.0083200  2
   6333   6330   6329   6340     1  0.0000000  1.2552000  3
   6340   6343   6346   6347     1  180.0000771  0.0000000  2
   6340   6343   6346   6348     1  180.0000771  0.0000000  2
   6351   6354   6357   6360     1  0.0000000  0.6508444  3
   6354   6357   6360   6361     1  180.0000771  2.0083200  2
   6354   6357   6360   6361     1  0.0000000  1.2552000  3
   6354   6357   6360   6371     1  180.0000771  2.0083200  2
   6354   6357   6360   6371     1  0.0000000  1.2552000  3
   6357   6360   6361   6364     1  180.0000771  2.0083200  2
   6357   6360   6361   6364     1  0.0000000  1.2552000  3
   6357   6360   6371   6374     1  180.0000771  2.0083200  2
   6357   6360   6371   6374     1  0.0000000  1.2552000  3
   6357   6354   6351   6381     1  0.0000000  0.6508444  3
   6360   6361   6364   6367     1  0.0000000  0.6508444  3
   6360   6371   6374   6377     1  0.0000000  0.6508444  3
   6361   6364   6367   6368     1  180.0000771  0.0000000  2
   6361   6364   6367   6369     1  180.0000771  0.0000000  2
   6361   6360   6371   6374     1  180.0000771  2.0083200  2
   6361   6360   6371   6374     1  0.0000000  1.2552000  3
   6364   6361   6360   6371     1  180.0000771  2.0083200  2
   6364   6361   6360   6371     1  0.0000000  1.2552000  3
   6371   6374   6377   6378     1  180.0000771  0.0000000  2
   6371   6374   6377   6379     1  180.0000771  0.0000000  2
   6382   6385   6388   6391     1  0.0000000  0.6508444  3
   6385   6388   6391   6392     1  180.0000771  2.0083200  2
   6385   6388   6391   6392     1  0.0000000  1.2552000  3
   6385   6388   6391   6402     1  180.0000771  2.0083200  2
   6385   6388   6391   6402     1  0.0000000  1.2552000  3
   6388   6385   6382   6412     1  0.0000000  0.6508444  3
   6388   6391   6392   6395     1  180.0000771  2.0083200  2
   6388   6391   6392   6395     1  0.0000000  1.2552000  3
   6388   6391   6402   6405     1  180.0000771  2.0083200  2
   6388   6391   6402   6405     1  0.0000000  1.2552000  3
   6391   6392   6395   6398     1  0.0000000  0.6508444  3
   6391   6402   6405   6408     1  0.0000000  0.6508444  3
   6392   6391   6402   6405     1  180.0000771  2.0083200  2
   6392   6391   6402   6405     1  0.0000000  1.2552000  3
   6392   6395   6398   6399     1  180.0000771  0.0000000  2
   6392   6395   6398   6400     1  180.0000771  0.0000000  2
   6395   6392   6391   6402     1  180.0000771  2.0083200  2
   6395   6392   6391   6402     1  0.0000000  1.2552000  3
   6402   6405   6408   6409     1  180.0000771  0.0000000  2
   6402   6405   6408   6410     1  180.0000771  0.0000000  2
   6413   6416   6419   6422     1  0.0000000  0.6508444  3
   6416   6419   6422   6423     1  180.0000771  2.0083200  2
   6416   6419   6422   6423     1  0.0000000  1.2552000  3
   6416   6419   6422   6433     1  180.0000771  2.0083200  2
   6416   6419   6422   6433     1  0.0000000  1.2552000  3
   6419   6422   6423   6426     1  180.0000771  2.0083200  2
   6419   6422   6423   6426     1  0.0000000  1.2552000  3
   6419   6422   6433   6436     1  180.0000771  2.0083200  2
   6419   6422   6433   6436     1  0.0000000  1.2552000  3
   6419   6416   6413   6443     1  0.0000000  0.6508444  3
   6422   6423   6426   6429     1  0.0000000  0.6508444  3
   6422   6433   6436   6439     1  0.0000000  0.6508444  3
   6423   6426   6429   6430     1  180.0000771  0.0000000  2
   6423   6426   6429   6431     1  180.0000771  0.0000000  2
   6423   6422   6433   6436     1  180.0000771  2.0083200  2
   6423   6422   6433   6436     1  0.0000000  1.2552000  3
   6426   6423   6422   6433     1  180.0000771  2.0083200  2
   6426   6423   6422   6433     1  0.0000000  1.2552000  3
   6433   6436   6439   6440     1  180.0000771  0.0000000  2
   6433   6436   6439   6441     1  180.0000771  0.0000000  2
   6444   6447   6450   6453     1  0.0000000  0.6508444  3
   6447   6450   6453   6454     1  180.0000771  2.0083200  2
   6447   6450   6453   6454     1  0.0000000  1.2552000  3
   6447   6450   6453   6464     1  180.0000771  2.0083200  2
   6447   6450   6453   6464     1  0.0000000  1.2552000  3
   6450   6447   6444   6474     1  0.0000000  0.6508444  3
   6450   6453   6454   6457     1  180.0000771  2.0083200  2
   6450   6453   6454   6457     1  0.0000000  1.2552000  3
   6450   6453   6464   6467     1  180.0000771  2.0083200  2
   6450   6453   6464   6467     1  0.0000000  1.2552000  3
   6453   6454   6457   6460     1  0.0000000  0.6508444  3
   6453   6464   6467   6470     1  0.0000000  0.6508444  3
   6454   6453   6464   6467     1  180.0000771  2.0083200  2
   6454   6453   6464   6467     1  0.0000000  1.2552000  3
   6454   6457   6460   6461     1  180.0000771  0.0000000  2
   6454   6457   6460   6462     1  180.0000771  0.0000000  2
   6457   6454   6453   6464     1  180.0000771  2.0083200  2
   6457   6454   6453   6464     1  0.0000000  1.2552000  3
   6464   6467   6470   6471     1  180.0000771  0.0000000  2
   6464   6467   6470   6472     1  180.0000771  0.0000000  2
   6475   6478   6481   6484     1  0.0000000  0.6508444  3
   6478   6481   6484   6485     1  180.0000771  2.0083200  2
   6478   6481   6484   6485     1  0.0000000  1.2552000  3
   6478   6481   6484   6495     1  180.0000771  2.0083200  2
   6478   6481   6484   6495     1  0.0000000  1.2552000  3
   6481   6484   6485   6488     1  180.0000771  2.0083200  2
   6481   6484   6485   6488     1  0.0000000  1.2552000  3
   6481   6484   6495   6498     1  180.0000771  2.0083200  2
   6481   6484   6495   6498     1  0.0000000  1.2552000  3
   6481   6478   6475   6505     1  0.0000000  0.6508444  3
   6484   6485   6488   6491     1  0.0000000  0.6508444  3
   6484   6495   6498   6501     1  0.0000000  0.6508444  3
   6485   6488   6491   6492     1  180.0000771  0.0000000  2
   6485   6488   6491   6493     1  180.0000771  0.0000000  2
   6485   6484   6495   6498     1  180.0000771  2.0083200  2
   6485   6484   6495   6498     1  0.0000000  1.2552000  3
   6488   6485   6484   6495     1  180.0000771  2.0083200  2
   6488   6485   6484   6495     1  0.0000000  1.2552000  3
   6495   6498   6501   6502     1  180.0000771  0.0000000  2
   6495   6498   6501   6503     1  180.0000771  0.0000000  2
   6506   6509   6512   6515     1  0.0000000  0.6508444  3
   6509   6512   6515   6516     1  180.0000771  2.0083200  2
   6509   6512   6515   6516     1  0.0000000  1.2552000  3
   6509   6512   6515   6526     1  180.0000771  2.0083200  2
   6509   6512   6515   6526     1  0.0000000  1.2552000  3
   6512   6509   6506   6536     1  0.0000000  0.6508444  3
   6512   6515   6516   6519     1  180.0000771  2.0083200  2
   6512   6515   6516   6519     1  0.0000000  1.2552000  3
   6512   6515   6526   6529     1  180.0000771  2.0083200  2
   6512   6515   6526   6529     1  0.0000000  1.2552000  3
   6515   6516   6519   6522     1  0.0000000  0.6508444  3
   6515   6526   6529   6532     1  0.0000000  0.6508444  3
   6516   6515   6526   6529     1  180.0000771  2.0083200  2
   6516   6515   6526   6529     1  0.0000000  1.2552000  3
   6516   6519   6522   6523     1  180.0000771  0.0000000  2
   6516   6519   6522   6524     1  180.0000771  0.0000000  2
   6519   6516   6515   6526     1  180.0000771  2.0083200  2
   6519   6516   6515   6526     1  0.0000000  1.2552000  3
   6526   6529   6532   6533     1  180.0000771  0.0000000  2
   6526   6529   6532   6534     1  180.0000771  0.0000000  2
   6537   6540   6543   6546     1  0.0000000  0.6508444  3
   6540   6543   6546   6547     1  180.0000771  2.0083200  2
   6540   6543   6546   6547     1  0.0000000  1.2552000  3
   6540   6543   6546   6557     1  180.0000771  2.0083200  2
   6540   6543   6546   6557     1  0.0000000  1.2552000  3
   6543   6546   6547   6550     1  180.0000771  2.0083200  2
   6543   6546   6547   6550     1  0.0000000  1.2552000  3
   6543   6546   6557   6560     1  180.0000771  2.0083200  2
   6543   6546   6557   6560     1  0.0000000  1.2552000  3
   6543   6540   6537   6567     1  0.0000000  0.6508444  3
   6546   6547   6550   6553     1  0.0000000  0.6508444  3
   6546   6557   6560   6563     1  0.0000000  0.6508444  3
   6547   6550   6553   6554     1  180.0000771  0.0000000  2
   6547   6550   6553   6555     1  180.0000771  0.0000000  2
   6547   6546   6557   6560     1  180.0000771  2.0083200  2
   6547   6546   6557   6560     1  0.0000000  1.2552000  3
   6550   6547   6546   6557     1  180.0000771  2.0083200  2
   6550   6547   6546   6557     1  0.0000000  1.2552000  3
   6557   6560   6563   6564     1  180.0000771  0.0000000  2
   6557   6560   6563   6565     1  180.0000771  0.0000000  2
   6568   6571   6574   6577     1  0.0000000  0.6508444  3
   6571   6574   6577   6578     1  180.0000771  2.0083200  2
   6571   6574   6577   6578     1  0.0000000  1.2552000  3
   6571   6574   6577   6588     1  180.0000771  2.0083200  2
   6571   6574   6577   6588     1  0.0000000  1.2552000  3
   6574   6571   6568   6598     1  0.0000000  0.6508444  3
   6574   6577   6578   6581     1  180.0000771  2.0083200  2
   6574   6577   6578   6581     1  0.0000000  1.2552000  3
   6574   6577   6588   6591     1  180.0000771  2.0083200  2
   6574   6577   6588   6591     1  0.0000000  1.2552000  3
   6577   6578   6581   6584     1  0.0000000  0.6508444  3
   6577   6588   6591   6594     1  0.0000000  0.6508444  3
   6578   6577   6588   6591     1  180.0000771  2.0083200  2
   6578   6577   6588   6591     1  0.0000000  1.2552000  3
   6578   6581   6584   6585     1  180.0000771  0.0000000  2
   6578   6581   6584   6586     1  180.0000771  0.0000000  2
   6581   6578   6577   6588     1  180.0000771  2.0083200  2
   6581   6578   6577   6588     1  0.0000000  1.2552000  3
   6588   6591   6594   6595     1  180.0000771  0.0000000  2
   6588   6591   6594   6596     1  180.0000771  0.0000000  2
   6599   6602   6605   6608     1  0.0000000  0.6508444  3
   6602   6605   6608   6609     1  180.0000771  2.0083200  2
   6602   6605   6608   6609     1  0.0000000  1.2552000  3
   6602   6605   6608   6619     1  180.0000771  2.0083200  2
   6602   6605   6608   6619     1  0.0000000  1.2552000  3
   6605   6608   6609   6612     1  180.0000771  2.0083200  2
   6605   6608   6609   6612     1  0.0000000  1.2552000  3
   6605   6608   6619   6622     1  180.0000771  2.0083200  2
   6605   6608   6619   6622     1  0.0000000  1.2552000  3
   6605   6602   6599   6629     1  0.0000000  0.6508444  3
   6608   6609   6612   6615     1  0.0000000  0.6508444  3
   6608   6619   6622   6625     1  0.0000000  0.6508444  3
   6609   6612   6615   6616     1  180.0000771  0.0000000  2
   6609   6612   6615   6617     1  180.0000771  0.0000000  2
   6609   6608   6619   6622     1  180.0000771  2.0083200  2
   6609   6608   6619   6622     1  0.0000000  1.2552000  3
   6612   6609   6608   6619     1  180.0000771  2.0083200  2
   6612   6609   6608   6619     1  0.0000000  1.2552000  3
   6619   6622   6625   6626     1  180.0000771  0.0000000  2
   6619   6622   6625   6627     1  180.0000771  0.0000000  2
   6630   6633   6636   6639     1  0.0000000  0.6508444  3
   6633   6636   6639   6640     1  180.0000771  2.0083200  2
   6633   6636   6639   6640     1  0.0000000  1.2552000  3
   6633   6636   6639   6650     1  180.0000771  2.0083200  2
   6633   6636   6639   6650     1  0.0000000  1.2552000  3
   6636   6633   6630   6660     1  0.0000000  0.6508444  3
   6636   6639   6640   6643     1  180.0000771  2.0083200  2
   6636   6639   6640   6643     1  0.0000000  1.2552000  3
   6636   6639   6650   6653     1  180.0000771  2.0083200  2
   6636   6639   6650   6653     1  0.0000000  1.2552000  3
   6639   6640   6643   6646     1  0.0000000  0.6508444  3
   6639   6650   6653   6656     1  0.0000000  0.6508444  3
   6640   6639   6650   6653     1  180.0000771  2.0083200  2
   6640   6639   6650   6653     1  0.0000000  1.2552000  3
   6640   6643   6646   6647     1  180.0000771  0.0000000  2
   6640   6643   6646   6648     1  180.0000771  0.0000000  2
   6643   6640   6639   6650     1  180.0000771  2.0083200  2
   6643   6640   6639   6650     1  0.0000000  1.2552000  3
   6650   6653   6656   6657     1  180.0000771  0.0000000  2
   6650   6653   6656   6658     1  180.0000771  0.0000000  2
   6661   6664   6667   6670     1  0.0000000  0.6508444  3
   6664   6667   6670   6671     1  180.0000771  2.0083200  2
   6664   6667   6670   6671     1  0.0000000  1.2552000  3
   6664   6667   6670   6681     1  180.0000771  2.0083200  2
   6664   6667   6670   6681     1  0.0000000  1.2552000  3
   6667   6670   6671   6674     1  180.0000771  2.0083200  2
   6667   6670   6671   6674     1  0.0000000  1.2552000  3
   6667   6670   6681   6684     1  180.0000771  2.0083200  2
   6667   6670   6681   6684     1  0.0000000  1.2552000  3
   6667   6664   6661   6691     1  0.0000000  0.6508444  3
   6670   6671   6674   6677     1  0.0000000  0.6508444  3
   6670   6681   6684   6687     1  0.0000000  0.6508444  3
   6671   6674   6677   6678     1  180.0000771  0.0000000  2
   6671   6674   6677   6679     1  180.0000771  0.0000000  2
   6671   6670   6681   6684     1  180.0000771  2.0083200  2
   6671   6670   6681   6684     1  0.0000000  1.2552000  3
   6674   6671   6670   6681     1  180.0000771  2.0083200  2
   6674   6671   6670   6681     1  0.0000000  1.2552000  3
   6681   6684   6687   6688     1  180.0000771  0.0000000  2
   6681   6684   6687   6689     1  180.0000771  0.0000000  2
   6692   6695   6698   6701     1  0.0000000  0.6508444  3
   6695   6698   6701   6702     1  180.0000771  2.0083200  2
   6695   6698   6701   6702     1  0.0000000  1.2552000  3
   6695   6698   6701   6712     1  180.0000771  2.0083200  2
   6695   6698   6701   6712     1  0.0000000  1.2552000  3
   6698   6695   6692   6722     1  0.0000000  0.6508444  3
   6698   6701   6702   6705     1  180.0000771  2.0083200  2
   6698   6701   6702   6705     1  0.0000000  1.2552000  3
   6698   6701   6712   6715     1  180.0000771  2.0083200  2
   6698   6701   6712   6715     1  0.0000000  1.2552000  3
   6701   6702   6705   6708     1  0.0000000  0.6508444  3
   6701   6712   6715   6718     1  0.0000000  0.6508444  3
   6702   6701   6712   6715     1  180.0000771  2.0083200  2
   6702   6701   6712   6715     1  0.0000000  1.2552000  3
   6702   6705   6708   6709     1  180.0000771  0.0000000  2
   6702   6705   6708   6710     1  180.0000771  0.0000000  2
   6705   6702   6701   6712     1  180.0000771  2.0083200  2
   6705   6702   6701   6712     1  0.0000000  1.2552000  3
   6712   6715   6718   6719     1  180.0000771  0.0000000  2
   6712   6715   6718   6720     1  180.0000771  0.0000000  2
   6723   6726   6729   6732     1  0.0000000  0.6508444  3
   6726   6729   6732   6733     1  180.0000771  2.0083200  2
   6726   6729   6732   6733     1  0.0000000  1.2552000  3
   6726   6729   6732   6743     1  180.0000771  2.0083200  2
   6726   6729   6732   6743     1  0.0000000  1.2552000  3
   6729   6732   6733   6736     1  180.0000771  2.0083200  2
   6729   6732   6733   6736     1  0.0000000  1.2552000  3
   6729   6732   6743   6746     1  180.0000771  2.0083200  2
   6729   6732   6743   6746     1  0.0000000  1.2552000  3
   6729   6726   6723   6753     1  0.0000000  0.6508444  3
   6732   6733   6736   6739     1  0.0000000  0.6508444  3
   6732   6743   6746   6749     1  0.0000000  0.6508444  3
   6733   6736   6739   6740     1  180.0000771  0.0000000  2
   6733   6736   6739   6741     1  180.0000771  0.0000000  2
   6733   6732   6743   6746     1  180.0000771  2.0083200  2
   6733   6732   6743   6746     1  0.0000000  1.2552000  3
   6736   6733   6732   6743     1  180.0000771  2.0083200  2
   6736   6733   6732   6743     1  0.0000000  1.2552000  3
   6743   6746   6749   6750     1  180.0000771  0.0000000  2
   6743   6746   6749   6751     1  180.0000771  0.0000000  2
   6754   6757   6760   6763     1  0.0000000  0.6508444  3
   6757   6760   6763   6764     1  180.0000771  2.0083200  2
   6757   6760   6763   6764     1  0.0000000  1.2552000  3
   6757   6760   6763   6774     1  180.0000771  2.0083200  2
   6757   6760   6763   6774     1  0.0000000  1.2552000  3
   6760   6757   6754   6784     1  0.0000000  0.6508444  3
   6760   6763   6764   6767     1  180.0000771  2.0083200  2
   6760   6763   6764   6767     1  0.0000000  1.2552000  3
   6760   6763   6774   6777     1  180.0000771  2.0083200  2
   6760   6763   6774   6777     1  0.0000000  1.2552000  3
   6763   6764   6767   6770     1  0.0000000  0.6508444  3
   6763   6774   6777   6780     1  0.0000000  0.6508444  3
   6764   6763   6774   6777     1  180.0000771  2.0083200  2
   6764   6763   6774   6777     1  0.0000000  1.2552000  3
   6764   6767   6770   6771     1  180.0000771  0.0000000  2
   6764   6767   6770   6772     1  180.0000771  0.0000000  2
   6767   6764   6763   6774     1  180.0000771  2.0083200  2
   6767   6764   6763   6774     1  0.0000000  1.2552000  3
   6774   6777   6780   6781     1  180.0000771  0.0000000  2
   6774   6777   6780   6782     1  180.0000771  0.0000000  2
   6785   6788   6791   6794     1  0.0000000  0.6508444  3
   6788   6791   6794   6795     1  180.0000771  2.0083200  2
   6788   6791   6794   6795     1  0.0000000  1.2552000  3
   6788   6791   6794   6805     1  180.0000771  2.0083200  2
   6788   6791   6794   6805     1  0.0000000  1.2552000  3
   6791   6794   6795   6798     1  180.0000771  2.0083200  2
   6791   6794   6795   6798     1  0.0000000  1.2552000  3
   6791   6794   6805   6808     1  180.0000771  2.0083200  2
   6791   6794   6805   6808     1  0.0000000  1.2552000  3
   6791   6788   6785   6815     1  0.0000000  0.6508444  3
   6794   6795   6798   6801     1  0.0000000  0.6508444  3
   6794   6805   6808   6811     1  0.0000000  0.6508444  3
   6795   6798   6801   6802     1  180.0000771  0.0000000  2
   6795   6798   6801   6803     1  180.0000771  0.0000000  2
   6795   6794   6805   6808     1  180.0000771  2.0083200  2
   6795   6794   6805   6808     1  0.0000000  1.2552000  3
   6798   6795   6794   6805     1  180.0000771  2.0083200  2
   6798   6795   6794   6805     1  0.0000000  1.2552000  3
   6805   6808   6811   6812     1  180.0000771  0.0000000  2
   6805   6808   6811   6813     1  180.0000771  0.0000000  2
   6816   6819   6822   6825     1  0.0000000  0.6508444  3
   6819   6822   6825   6826     1  180.0000771  2.0083200  2
   6819   6822   6825   6826     1  0.0000000  1.2552000  3
   6819   6822   6825   6836     1  180.0000771  2.0083200  2
   6819   6822   6825   6836     1  0.0000000  1.2552000  3
   6822   6819   6816   6846     1  0.0000000  0.6508444  3
   6822   6825   6826   6829     1  180.0000771  2.0083200  2
   6822   6825   6826   6829     1  0.0000000  1.2552000  3
   6822   6825   6836   6839     1  180.0000771  2.0083200  2
   6822   6825   6836   6839     1  0.0000000  1.2552000  3
   6825   6826   6829   6832     1  0.0000000  0.6508444  3
   6825   6836   6839   6842     1  0.0000000  0.6508444  3
   6826   6825   6836   6839     1  180.0000771  2.0083200  2
   6826   6825   6836   6839     1  0.0000000  1.2552000  3
   6826   6829   6832   6833     1  180.0000771  0.0000000  2
   6826   6829   6832   6834     1  180.0000771  0.0000000  2
   6829   6826   6825   6836     1  180.0000771  2.0083200  2
   6829   6826   6825   6836     1  0.0000000  1.2552000  3
   6836   6839   6842   6843     1  180.0000771  0.0000000  2
   6836   6839   6842   6844     1  180.0000771  0.0000000  2
   6847   6850   6853   6856     1  0.0000000  0.6508444  3
   6850   6853   6856   6857     1  180.0000771  2.0083200  2
   6850   6853   6856   6857     1  0.0000000  1.2552000  3
   6850   6853   6856   6867     1  180.0000771  2.0083200  2
   6850   6853   6856   6867     1  0.0000000  1.2552000  3
   6853   6856   6857   6860     1  180.0000771  2.0083200  2
   6853   6856   6857   6860     1  0.0000000  1.2552000  3
   6853   6856   6867   6870     1  180.0000771  2.0083200  2
   6853   6856   6867   6870     1  0.0000000  1.2552000  3
   6853   6850   6847   6877     1  0.0000000  0.6508444  3
   6856   6857   6860   6863     1  0.0000000  0.6508444  3
   6856   6867   6870   6873     1  0.0000000  0.6508444  3
   6857   6860   6863   6864     1  180.0000771  0.0000000  2
   6857   6860   6863   6865     1  180.0000771  0.0000000  2
   6857   6856   6867   6870     1  180.0000771  2.0083200  2
   6857   6856   6867   6870     1  0.0000000  1.2552000  3
   6860   6857   6856   6867     1  180.0000771  2.0083200  2
   6860   6857   6856   6867     1  0.0000000  1.2552000  3
   6867   6870   6873   6874     1  180.0000771  0.0000000  2
   6867   6870   6873   6875     1  180.0000771  0.0000000  2
   6878   6881   6884   6887     1  0.0000000  0.6508444  3
   6881   6884   6887   6888     1  180.0000771  2.0083200  2
   6881   6884   6887   6888     1  0.0000000  1.2552000  3
   6881   6884   6887   6898     1  180.0000771  2.0083200  2
   6881   6884   6887   6898     1  0.0000000  1.2552000  3
   6884   6881   6878   6908     1  0.0000000  0.6508444  3
   6884   6887   6888   6891     1  180.0000771  2.0083200  2
   6884   6887   6888   6891     1  0.0000000  1.2552000  3
   6884   6887   6898   6901     1  180.0000771  2.0083200  2
   6884   6887   6898   6901     1  0.0000000  1.2552000  3
   6887   6888   6891   6894     1  0.0000000  0.6508444  3
   6887   6898   6901   6904     1  0.0000000  0.6508444  3
   6888   6887   6898   6901     1  180.0000771  2.0083200  2
   6888   6887   6898   6901     1  0.0000000  1.2552000  3
   6888   6891   6894   6895     1  180.0000771  0.0000000  2
   6888   6891   6894   6896     1  180.0000771  0.0000000  2
   6891   6888   6887   6898     1  180.0000771  2.0083200  2
   6891   6888   6887   6898     1  0.0000000  1.2552000  3
   6898   6901   6904   6905     1  180.0000771  0.0000000  2
   6898   6901   6904   6906     1  180.0000771  0.0000000  2
   6909   6912   6915   6918     1  0.0000000  0.6508444  3
   6912   6915   6918   6919     1  180.0000771  2.0083200  2
   6912   6915   6918   6919     1  0.0000000  1.2552000  3
   6912   6915   6918   6929     1  180.0000771  2.0083200  2
   6912   6915   6918   6929     1  0.0000000  1.2552000  3
   6915   6918   6919   6922     1  180.0000771  2.0083200  2
   6915   6918   6919   6922     1  0.0000000  1.2552000  3
   6915   6918   6929   6932     1  180.0000771  2.0083200  2
   6915   6918   6929   6932     1  0.0000000  1.2552000  3
   6915   6912   6909   6939     1  0.0000000  0.6508444  3
   6918   6919   6922   6925     1  0.0000000  0.6508444  3
   6918   6929   6932   6935     1  0.0000000  0.6508444  3
   6919   6922   6925   6926     1  180.0000771  0.0000000  2
   6919   6922   6925   6927     1  180.0000771  0.0000000  2
   6919   6918   6929   6932     1  180.0000771  2.0083200  2
   6919   6918   6929   6932     1  0.0000000  1.2552000  3
   6922   6919   6918   6929     1  180.0000771  2.0083200  2
   6922   6919   6918   6929     1  0.0000000  1.2552000  3
   6929   6932   6935   6936     1  180.0000771  0.0000000  2
   6929   6932   6935   6937     1  180.0000771  0.0000000  2
   6940   6943   6946   6949     1  0.0000000  0.6508444  3
   6943   6946   6949   6950     1  180.0000771  2.0083200  2
   6943   6946   6949   6950     1  0.0000000  1.2552000  3
   6943   6946   6949   6960     1  180.0000771  2.0083200  2
   6943   6946   6949   6960     1  0.0000000  1.2552000  3
   6946   6943   6940   6970     1  0.0000000  0.6508444  3
   6946   6949   6950   6953     1  180.0000771  2.0083200  2
   6946   6949   6950   6953     1  0.0000000  1.2552000  3
   6946   6949   6960   6963     1  180.0000771  2.0083200  2
   6946   6949   6960   6963     1  0.0000000  1.2552000  3
   6949   6950   6953   6956     1  0.0000000  0.6508444  3
   6949   6960   6963   6966     1  0.0000000  0.6508444  3
   6950   6949   6960   6963     1  180.0000771  2.0083200  2
   6950   6949   6960   6963     1  0.0000000  1.2552000  3
   6950   6953   6956   6957     1  180.0000771  0.0000000  2
   6950   6953   6956   6958     1  180.0000771  0.0000000  2
   6953   6950   6949   6960     1  180.0000771  2.0083200  2
   6953   6950   6949   6960     1  0.0000000  1.2552000  3
   6960   6963   6966   6967     1  180.0000771  0.0000000  2
   6960   6963   6966   6968     1  180.0000771  0.0000000  2
   6971   6974   6977   6980     1  0.0000000  0.6508444  3
   6974   6977   6980   6981     1  180.0000771  2.0083200  2
   6974   6977   6980   6981     1  0.0000000  1.2552000  3
   6974   6977   6980   6991     1  180.0000771  2.0083200  2
   6974   6977   6980   6991     1  0.0000000  1.2552000  3
   6977   6980   6981   6984     1  180.0000771  2.0083200  2
   6977   6980   6981   6984     1  0.0000000  1.2552000  3
   6977   6980   6991   6994     1  180.0000771  2.0083200  2
   6977   6980   6991   6994     1  0.0000000  1.2552000  3
   6977   6974   6971   7001     1  0.0000000  0.6508444  3
   6980   6981   6984   6987     1  0.0000000  0.6508444  3
   6980   6991   6994   6997     1  0.0000000  0.6508444  3
   6981   6984   6987   6988     1  180.0000771  0.0000000  2
   6981   6984   6987   6989     1  180.0000771  0.0000000  2
   6981   6980   6991   6994     1  180.0000771  2.0083200  2
   6981   6980   6991   6994     1  0.0000000  1.2552000  3
   6984   6981   6980   6991     1  180.0000771  2.0083200  2
   6984   6981   6980   6991     1  0.0000000  1.2552000  3
   6991   6994   6997   6998     1  180.0000771  0.0000000  2
   6991   6994   6997   6999     1  180.0000771  0.0000000  2
   7002   7005   7008   7011     1  0.0000000  0.6508444  3
   7005   7008   7011   7012     1  180.0000771  2.0083200  2
   7005   7008   7011   7012     1  0.0000000  1.2552000  3
   7005   7008   7011   7022     1  180.0000771  2.0083200  2
   7005   7008   7011   7022     1  0.0000000  1.2552000  3
   7008   7005   7002   7032     1  0.0000000  0.6508444  3
   7008   7011   7012   7015     1  180.0000771  2.0083200  2
   7008   7011   7012   7015     1  0.0000000  1.2552000  3
   7008   7011   7022   7025     1  180.0000771  2.0083200  2
   7008   7011   7022   7025     1  0.0000000  1.2552000  3
   7011   7012   7015   7018     1  0.0000000  0.6508444  3
   7011   7022   7025   7028     1  0.0000000  0.6508444  3
   7012   7011   7022   7025     1  180.0000771  2.0083200  2
   7012   7011   7022   7025     1  0.0000000  1.2552000  3
   7012   7015   7018   7019     1  180.0000771  0.0000000  2
   7012   7015   7018   7020     1  180.0000771  0.0000000  2
   7015   7012   7011   7022     1  180.0000771  2.0083200  2
   7015   7012   7011   7022     1  0.0000000  1.2552000  3
   7022   7025   7028   7029     1  180.0000771  0.0000000  2
   7022   7025   7028   7030     1  180.0000771  0.0000000  2
   7033   7036   7039   7042     1  0.0000000  0.6508444  3
   7036   7039   7042   7043     1  180.0000771  2.0083200  2
   7036   7039   7042   7043     1  0.0000000  1.2552000  3
   7036   7039   7042   7053     1  180.0000771  2.0083200  2
   7036   7039   7042   7053     1  0.0000000  1.2552000  3
   7039   7042   7043   7046     1  180.0000771  2.0083200  2
   7039   7042   7043   7046     1  0.0000000  1.2552000  3
   7039   7042   7053   7056     1  180.0000771  2.0083200  2
   7039   7042   7053   7056     1  0.0000000  1.2552000  3
   7039   7036   7033   7063     1  0.0000000  0.6508444  3
   7042   7043   7046   7049     1  0.0000000  0.6508444  3
   7042   7053   7056   7059     1  0.0000000  0.6508444  3
   7043   7046   7049   7050     1  180.0000771  0.0000000  2
   7043   7046   7049   7051     1  180.0000771  0.0000000  2
   7043   7042   7053   7056     1  180.0000771  2.0083200  2
   7043   7042   7053   7056     1  0.0000000  1.2552000  3
   7046   7043   7042   7053     1  180.0000771  2.0083200  2
   7046   7043   7042   7053     1  0.0000000  1.2552000  3
   7053   7056   7059   7060     1  180.0000771  0.0000000  2
   7053   7056   7059   7061     1  180.0000771  0.0000000  2
   7064   7067   7070   7073     1  0.0000000  0.6508444  3
   7067   7070   7073   7074     1  180.0000771  2.0083200  2
   7067   7070   7073   7074     1  0.0000000  1.2552000  3
   7067   7070   7073   7084     1  180.0000771  2.0083200  2
   7067   7070   7073   7084     1  0.0000000  1.2552000  3
   7070   7067   7064   7094     1  0.0000000  0.6508444  3
   7070   7073   7074   7077     1  180.0000771  2.0083200  2
   7070   7073   7074   7077     1  0.0000000  1.2552000  3
   7070   7073   7084   7087     1  180.0000771  2.0083200  2
   7070   7073   7084   7087     1  0.0000000  1.2552000  3
   7073   7074   7077   7080     1  0.0000000  0.6508444  3
   7073   7084   7087   7090     1  0.0000000  0.6508444  3
   7074   7073   7084   7087     1  180.0000771  2.0083200  2
   7074   7073   7084   7087     1  0.0000000  1.2552000  3
   7074   7077   7080   7081     1  180.0000771  0.0000000  2
   7074   7077   7080   7082     1  180.0000771  0.0000000  2
   7077   7074   7073   7084     1  180.0000771  2.0083200  2
   7077   7074   7073   7084     1  0.0000000  1.2552000  3
   7084   7087   7090   7091     1  180.0000771  0.0000000  2
   7084   7087   7090   7092     1  180.0000771  0.0000000  2
   7095   7098   7101   7104     1  0.0000000  0.6508444  3
   7098   7101   7104   7105     1  180.0000771  2.0083200  2
   7098   7101   7104   7105     1  0.0000000  1.2552000  3
   7098   7101   7104   7115     1  180.0000771  2.0083200  2
   7098   7101   7104   7115     1  0.0000000  1.2552000  3
   7101   7104   7105   7108     1  180.0000771  2.0083200  2
   7101   7104   7105   7108     1  0.0000000  1.2552000  3
   7101   7104   7115   7118     1  180.0000771  2.0083200  2
   7101   7104   7115   7118     1  0.0000000  1.2552000  3
   7101   7098   7095   7125     1  0.0000000  0.6508444  3
   7104   7105   7108   7111     1  0.0000000  0.6508444  3
   7104   7115   7118   7121     1  0.0000000  0.6508444  3
   7105   7108   7111   7112     1  180.0000771  0.0000000  2
   7105   7108   7111   7113     1  180.0000771  0.0000000  2
   7105   7104   7115   7118     1  180.0000771  2.0083200  2
   7105   7104   7115   7118     1  0.0000000  1.2552000  3
   7108   7105   7104   7115     1  180.0000771  2.0083200  2
   7108   7105   7104   7115     1  0.0000000  1.2552000  3
   7115   7118   7121   7122     1  180.0000771  0.0000000  2
   7115   7118   7121   7123     1  180.0000771  0.0000000  2
   7126   7129   7132   7135     1  0.0000000  0.6508444  3
   7129   7132   7135   7136     1  180.0000771  2.0083200  2
   7129   7132   7135   7136     1  0.0000000  1.2552000  3
   7129   7132   7135   7146     1  180.0000771  2.0083200  2
   7129   7132   7135   7146     1  0.0000000  1.2552000  3
   7132   7129   7126   7156     1  0.0000000  0.6508444  3
   7132   7135   7136   7139     1  180.0000771  2.0083200  2
   7132   7135   7136   7139     1  0.0000000  1.2552000  3
   7132   7135   7146   7149     1  180.0000771  2.0083200  2
   7132   7135   7146   7149     1  0.0000000  1.2552000  3
   7135   7136   7139   7142     1  0.0000000  0.6508444  3
   7135   7146   7149   7152     1  0.0000000  0.6508444  3
   7136   7135   7146   7149     1  180.0000771  2.0083200  2
   7136   7135   7146   7149     1  0.0000000  1.2552000  3
   7136   7139   7142   7143     1  180.0000771  0.0000000  2
   7136   7139   7142   7144     1  180.0000771  0.0000000  2
   7139   7136   7135   7146     1  180.0000771  2.0083200  2
   7139   7136   7135   7146     1  0.0000000  1.2552000  3
   7146   7149   7152   7153     1  180.0000771  0.0000000  2
   7146   7149   7152   7154     1  180.0000771  0.0000000  2
   7157   7160   7163   7166     1  0.0000000  0.6508444  3
   7160   7163   7166   7167     1  180.0000771  2.0083200  2
   7160   7163   7166   7167     1  0.0000000  1.2552000  3
   7160   7163   7166   7177     1  180.0000771  2.0083200  2
   7160   7163   7166   7177     1  0.0000000  1.2552000  3
   7163   7166   7167   7170     1  180.0000771  2.0083200  2
   7163   7166   7167   7170     1  0.0000000  1.2552000  3
   7163   7166   7177   7180     1  180.0000771  2.0083200  2
   7163   7166   7177   7180     1  0.0000000  1.2552000  3
   7163   7160   7157   7187     1  0.0000000  0.6508444  3
   7166   7167   7170   7173     1  0.0000000  0.6508444  3
   7166   7177   7180   7183     1  0.0000000  0.6508444  3
   7167   7170   7173   7174     1  180.0000771  0.0000000  2
   7167   7170   7173   7175     1  180.0000771  0.0000000  2
   7167   7166   7177   7180     1  180.0000771  2.0083200  2
   7167   7166   7177   7180     1  0.0000000  1.2552000  3
   7170   7167   7166   7177     1  180.0000771  2.0083200  2
   7170   7167   7166   7177     1  0.0000000  1.2552000  3
   7177   7180   7183   7184     1  180.0000771  0.0000000  2
   7177   7180   7183   7185     1  180.0000771  0.0000000  2
   7188   7191   7194   7197     1  0.0000000  0.6508444  3
   7191   7194   7197   7198     1  180.0000771  2.0083200  2
   7191   7194   7197   7198     1  0.0000000  1.2552000  3
   7191   7194   7197   7208     1  180.0000771  2.0083200  2
   7191   7194   7197   7208     1  0.0000000  1.2552000  3
   7194   7191   7188   7218     1  0.0000000  0.6508444  3
   7194   7197   7198   7201     1  180.0000771  2.0083200  2
   7194   7197   7198   7201     1  0.0000000  1.2552000  3
   7194   7197   7208   7211     1  180.0000771  2.0083200  2
   7194   7197   7208   7211     1  0.0000000  1.2552000  3
   7197   7198   7201   7204     1  0.0000000  0.6508444  3
   7197   7208   7211   7214     1  0.0000000  0.6508444  3
   7198   7197   7208   7211     1  180.0000771  2.0083200  2
   7198   7197   7208   7211     1  0.0000000  1.2552000  3
   7198   7201   7204   7205     1  180.0000771  0.0000000  2
   7198   7201   7204   7206     1  180.0000771  0.0000000  2
   7201   7198   7197   7208     1  180.0000771  2.0083200  2
   7201   7198   7197   7208     1  0.0000000  1.2552000  3
   7208   7211   7214   7215     1  180.0000771  0.0000000  2
   7208   7211   7214   7216     1  180.0000771  0.0000000  2
   7219   7222   7225   7228     1  0.0000000  0.6508444  3
   7222   7225   7228   7229     1  180.0000771  2.0083200  2
   7222   7225   7228   7229     1  0.0000000  1.2552000  3
   7222   7225   7228   7239     1  180.0000771  2.0083200  2
   7222   7225   7228   7239     1  0.0000000  1.2552000  3
   7225   7228   7229   7232     1  180.0000771  2.0083200  2
   7225   7228   7229   7232     1  0.0000000  1.2552000  3
   7225   7228   7239   7242     1  180.0000771  2.0083200  2
   7225   7228   7239   7242     1  0.0000000  1.2552000  3
   7225   7222   7219   7249     1  0.0000000  0.6508444  3
   7228   7229   7232   7235     1  0.0000000  0.6508444  3
   7228   7239   7242   7245     1  0.0000000  0.6508444  3
   7229   7232   7235   7236     1  180.0000771  0.0000000  2
   7229   7232   7235   7237     1  180.0000771  0.0000000  2
   7229   7228   7239   7242     1  180.0000771  2.0083200  2
   7229   7228   7239   7242     1  0.0000000  1.2552000  3
   7232   7229   7228   7239     1  180.0000771  2.0083200  2
   7232   7229   7228   7239     1  0.0000000  1.2552000  3
   7239   7242   7245   7246     1  180.0000771  0.0000000  2
   7239   7242   7245   7247     1  180.0000771  0.0000000  2
   7250   7253   7256   7259     1  0.0000000  0.6508444  3
   7253   7256   7259   7260     1  180.0000771  2.0083200  2
   7253   7256   7259   7260     1  0.0000000  1.2552000  3
   7253   7256   7259   7270     1  180.0000771  2.0083200  2
   7253   7256   7259   7270     1  0.0000000  1.2552000  3
   7256   7253   7250   7280     1  0.0000000  0.6508444  3
   7256   7259   7260   7263     1  180.0000771  2.0083200  2
   7256   7259   7260   7263     1  0.0000000  1.2552000  3
   7256   7259   7270   7273     1  180.0000771  2.0083200  2
   7256   7259   7270   7273     1  0.0000000  1.2552000  3
   7259   7260   7263   7266     1  0.0000000  0.6508444  3
   7259   7270   7273   7276     1  0.0000000  0.6508444  3
   7260   7259   7270   7273     1  180.0000771  2.0083200  2
   7260   7259   7270   7273     1  0.0000000  1.2552000  3
   7260   7263   7266   7267     1  180.0000771  0.0000000  2
   7260   7263   7266   7268     1  180.0000771  0.0000000  2
   7263   7260   7259   7270     1  180.0000771  2.0083200  2
   7263   7260   7259   7270     1  0.0000000  1.2552000  3
   7270   7273   7276   7277     1  180.0000771  0.0000000  2
   7270   7273   7276   7278     1  180.0000771  0.0000000  2
   7281   7284   7287   7290     1  0.0000000  0.6508444  3
   7284   7287   7290   7291     1  180.0000771  2.0083200  2
   7284   7287   7290   7291     1  0.0000000  1.2552000  3
   7284   7287   7290   7301     1  180.0000771  2.0083200  2
   7284   7287   7290   7301     1  0.0000000  1.2552000  3
   7287   7290   7291   7294     1  180.0000771  2.0083200  2
   7287   7290   7291   7294     1  0.0000000  1.2552000  3
   7287   7290   7301   7304     1  180.0000771  2.0083200  2
   7287   7290   7301   7304     1  0.0000000  1.2552000  3
   7287   7284   7281   7311     1  0.0000000  0.6508444  3
   7290   7291   7294   7297     1  0.0000000  0.6508444  3
   7290   7301   7304   7307     1  0.0000000  0.6508444  3
   7291   7294   7297   7298     1  180.0000771  0.0000000  2
   7291   7294   7297   7299     1  180.0000771  0.0000000  2
   7291   7290   7301   7304     1  180.0000771  2.0083200  2
   7291   7290   7301   7304     1  0.0000000  1.2552000  3
   7294   7291   7290   7301     1  180.0000771  2.0083200  2
   7294   7291   7290   7301     1  0.0000000  1.2552000  3
   7301   7304   7307   7308     1  180.0000771  0.0000000  2
   7301   7304   7307   7309     1  180.0000771  0.0000000  2
   7312   7315   7318   7321     1  0.0000000  0.6508444  3
   7315   7318   7321   7322     1  180.0000771  2.0083200  2
   7315   7318   7321   7322     1  0.0000000  1.2552000  3
   7315   7318   7321   7332     1  180.0000771  2.0083200  2
   7315   7318   7321   7332     1  0.0000000  1.2552000  3
   7318   7315   7312   7342     1  0.0000000  0.6508444  3
   7318   7321   7322   7325     1  180.0000771  2.0083200  2
   7318   7321   7322   7325     1  0.0000000  1.2552000  3
   7318   7321   7332   7335     1  180.0000771  2.0083200  2
   7318   7321   7332   7335     1  0.0000000  1.2552000  3
   7321   7322   7325   7328     1  0.0000000  0.6508444  3
   7321   7332   7335   7338     1  0.0000000  0.6508444  3
   7322   7321   7332   7335     1  180.0000771  2.0083200  2
   7322   7321   7332   7335     1  0.0000000  1.2552000  3
   7322   7325   7328   7329     1  180.0000771  0.0000000  2
   7322   7325   7328   7330     1  180.0000771  0.0000000  2
   7325   7322   7321   7332     1  180.0000771  2.0083200  2
   7325   7322   7321   7332     1  0.0000000  1.2552000  3
   7332   7335   7338   7339     1  180.0000771  0.0000000  2
   7332   7335   7338   7340     1  180.0000771  0.0000000  2
   7343   7346   7349   7352     1  0.0000000  0.6508444  3
   7346   7349   7352   7353     1  180.0000771  2.0083200  2
   7346   7349   7352   7353     1  0.0000000  1.2552000  3
   7346   7349   7352   7363     1  180.0000771  2.0083200  2
   7346   7349   7352   7363     1  0.0000000  1.2552000  3
   7349   7352   7353   7356     1  180.0000771  2.0083200  2
   7349   7352   7353   7356     1  0.0000000  1.2552000  3
   7349   7352   7363   7366     1  180.0000771  2.0083200  2
   7349   7352   7363   7366     1  0.0000000  1.2552000  3
   7349   7346   7343   7373     1  0.0000000  0.6508444  3
   7352   7353   7356   7359     1  0.0000000  0.6508444  3
   7352   7363   7366   7369     1  0.0000000  0.6508444  3
   7353   7356   7359   7360     1  180.0000771  0.0000000  2
   7353   7356   7359   7361     1  180.0000771  0.0000000  2
   7353   7352   7363   7366     1  180.0000771  2.0083200  2
   7353   7352   7363   7366     1  0.0000000  1.2552000  3
   7356   7353   7352   7363     1  180.0000771  2.0083200  2
   7356   7353   7352   7363     1  0.0000000  1.2552000  3
   7363   7366   7369   7370     1  180.0000771  0.0000000  2
   7363   7366   7369   7371     1  180.0000771  0.0000000  2
   7374   7377   7380   7383     1  0.0000000  0.6508444  3
   7377   7380   7383   7384     1  180.0000771  2.0083200  2
   7377   7380   7383   7384     1  0.0000000  1.2552000  3
   7377   7380   7383   7394     1  180.0000771  2.0083200  2
   7377   7380   7383   7394     1  0.0000000  1.2552000  3
   7380   7377   7374   7404     1  0.0000000  0.6508444  3
   7380   7383   7384   7387     1  180.0000771  2.0083200  2
   7380   7383   7384   7387     1  0.0000000  1.2552000  3
   7380   7383   7394   7397     1  180.0000771  2.0083200  2
   7380   7383   7394   7397     1  0.0000000  1.2552000  3
   7383   7384   7387   7390     1  0.0000000  0.6508444  3
   7383   7394   7397   7400     1  0.0000000  0.6508444  3
   7384   7383   7394   7397     1  180.0000771  2.0083200  2
   7384   7383   7394   7397     1  0.0000000  1.2552000  3
   7384   7387   7390   7391     1  180.0000771  0.0000000  2
   7384   7387   7390   7392     1  180.0000771  0.0000000  2
   7387   7384   7383   7394     1  180.0000771  2.0083200  2
   7387   7384   7383   7394     1  0.0000000  1.2552000  3
   7394   7397   7400   7401     1  180.0000771  0.0000000  2
   7394   7397   7400   7402     1  180.0000771  0.0000000  2
   7405   7408   7411   7414     1  0.0000000  0.6508444  3
   7408   7411   7414   7415     1  180.0000771  2.0083200  2
   7408   7411   7414   7415     1  0.0000000  1.2552000  3
   7408   7411   7414   7425     1  180.0000771  2.0083200  2
   7408   7411   7414   7425     1  0.0000000  1.2552000  3
   7411   7414   7415   7418     1  180.0000771  2.0083200  2
   7411   7414   7415   7418     1  0.0000000  1.2552000  3
   7411   7414   7425   7428     1  180.0000771  2.0083200  2
   7411   7414   7425   7428     1  0.0000000  1.2552000  3
   7411   7408   7405   7435     1  0.0000000  0.6508444  3
   7414   7415   7418   7421     1  0.0000000  0.6508444  3
   7414   7425   7428   7431     1  0.0000000  0.6508444  3
   7415   7418   7421   7422     1  180.0000771  0.0000000  2
   7415   7418   7421   7423     1  180.0000771  0.0000000  2
   7415   7414   7425   7428     1  180.0000771  2.0083200  2
   7415   7414   7425   7428     1  0.0000000  1.2552000  3
   7418   7415   7414   7425     1  180.0000771  2.0083200  2
   7418   7415   7414   7425     1  0.0000000  1.2552000  3
   7425   7428   7431   7432     1  180.0000771  0.0000000  2
   7425   7428   7431   7433     1  180.0000771  0.0000000  2
   7436   7439   7442   7445     1  0.0000000  0.6508444  3
   7439   7442   7445   7446     1  180.0000771  2.0083200  2
   7439   7442   7445   7446     1  0.0000000  1.2552000  3
   7439   7442   7445   7456     1  180.0000771  2.0083200  2
   7439   7442   7445   7456     1  0.0000000  1.2552000  3
   7442   7439   7436   7466     1  0.0000000  0.6508444  3
   7442   7445   7446   7449     1  180.0000771  2.0083200  2
   7442   7445   7446   7449     1  0.0000000  1.2552000  3
   7442   7445   7456   7459     1  180.0000771  2.0083200  2
   7442   7445   7456   7459     1  0.0000000  1.2552000  3
   7445   7446   7449   7452     1  0.0000000  0.6508444  3
   7445   7456   7459   7462     1  0.0000000  0.6508444  3
   7446   7445   7456   7459     1  180.0000771  2.0083200  2
   7446   7445   7456   7459     1  0.0000000  1.2552000  3
   7446   7449   7452   7453     1  180.0000771  0.0000000  2
   7446   7449   7452   7454     1  180.0000771  0.0000000  2
   7449   7446   7445   7456     1  180.0000771  2.0083200  2
   7449   7446   7445   7456     1  0.0000000  1.2552000  3
   7456   7459   7462   7463     1  180.0000771  0.0000000  2
   7456   7459   7462   7464     1  180.0000771  0.0000000  2
   7467   7470   7473   7476     1  0.0000000  0.6508444  3
   7470   7473   7476   7477     1  180.0000771  2.0083200  2
   7470   7473   7476   7477     1  0.0000000  1.2552000  3
   7470   7473   7476   7487     1  180.0000771  2.0083200  2
   7470   7473   7476   7487     1  0.0000000  1.2552000  3
   7473   7476   7477   7480     1  180.0000771  2.0083200  2
   7473   7476   7477   7480     1  0.0000000  1.2552000  3
   7473   7476   7487   7490     1  180.0000771  2.0083200  2
   7473   7476   7487   7490     1  0.0000000  1.2552000  3
   7473   7470   7467   7497     1  0.0000000  0.6508444  3
   7476   7477   7480   7483     1  0.0000000  0.6508444  3
   7476   7487   7490   7493     1  0.0000000  0.6508444  3
   7477   7480   7483   7484     1  180.0000771  0.0000000  2
   7477   7480   7483   7485     1  180.0000771  0.0000000  2
   7477   7476   7487   7490     1  180.0000771  2.0083200  2
   7477   7476   7487   7490     1  0.0000000  1.2552000  3
   7480   7477   7476   7487     1  180.0000771  2.0083200  2
   7480   7477   7476   7487     1  0.0000000  1.2552000  3
   7487   7490   7493   7494     1  180.0000771  0.0000000  2
   7487   7490   7493   7495     1  180.0000771  0.0000000  2
   7498   7501   7504   7507     1  0.0000000  0.6508444  3
   7501   7504   7507   7508     1  180.0000771  2.0083200  2
   7501   7504   7507   7508     1  0.0000000  1.2552000  3
   7501   7504   7507   7518     1  180.0000771  2.0083200  2
   7501   7504   7507   7518     1  0.0000000  1.2552000  3
   7504   7501   7498   7528     1  0.0000000  0.6508444  3
   7504   7507   7508   7511     1  180.0000771  2.0083200  2
   7504   7507   7508   7511     1  0.0000000  1.2552000  3
   7504   7507   7518   7521     1  180.0000771  2.0083200  2
   7504   7507   7518   7521     1  0.0000000  1.2552000  3
   7507   7508   7511   7514     1  0.0000000  0.6508444  3
   7507   7518   7521   7524     1  0.0000000  0.6508444  3
   7508   7507   7518   7521     1  180.0000771  2.0083200  2
   7508   7507   7518   7521     1  0.0000000  1.2552000  3
   7508   7511   7514   7515     1  180.0000771  0.0000000  2
   7508   7511   7514   7516     1  180.0000771  0.0000000  2
   7511   7508   7507   7518     1  180.0000771  2.0083200  2
   7511   7508   7507   7518     1  0.0000000  1.2552000  3
   7518   7521   7524   7525     1  180.0000771  0.0000000  2
   7518   7521   7524   7526     1  180.0000771  0.0000000  2
   7529   7532   7535   7538     1  0.0000000  0.6508444  3
   7532   7535   7538   7539     1  180.0000771  2.0083200  2
   7532   7535   7538   7539     1  0.0000000  1.2552000  3
   7532   7535   7538   7549     1  180.0000771  2.0083200  2
   7532   7535   7538   7549     1  0.0000000  1.2552000  3
   7535   7538   7539   7542     1  180.0000771  2.0083200  2
   7535   7538   7539   7542     1  0.0000000  1.2552000  3
   7535   7538   7549   7552     1  180.0000771  2.0083200  2
   7535   7538   7549   7552     1  0.0000000  1.2552000  3
   7535   7532   7529   7559     1  0.0000000  0.6508444  3
   7538   7539   7542   7545     1  0.0000000  0.6508444  3
   7538   7549   7552   7555     1  0.0000000  0.6508444  3
   7539   7542   7545   7546     1  180.0000771  0.0000000  2
   7539   7542   7545   7547     1  180.0000771  0.0000000  2
   7539   7538   7549   7552     1  180.0000771  2.0083200  2
   7539   7538   7549   7552     1  0.0000000  1.2552000  3
   7542   7539   7538   7549     1  180.0000771  2.0083200  2
   7542   7539   7538   7549     1  0.0000000  1.2552000  3
   7549   7552   7555   7556     1  180.0000771  0.0000000  2
   7549   7552   7555   7557     1  180.0000771  0.0000000  2
   7560   7563   7566   7569     1  0.0000000  0.6508444  3
   7563   7566   7569   7570     1  180.0000771  2.0083200  2
   7563   7566   7569   7570     1  0.0000000  1.2552000  3
   7563   7566   7569   7580     1  180.0000771  2.0083200  2
   7563   7566   7569   7580     1  0.0000000  1.2552000  3
   7566   7563   7560   7590     1  0.0000000  0.6508444  3
   7566   7569   7570   7573     1  180.0000771  2.0083200  2
   7566   7569   7570   7573     1  0.0000000  1.2552000  3
   7566   7569   7580   7583     1  180.0000771  2.0083200  2
   7566   7569   7580   7583     1  0.0000000  1.2552000  3
   7569   7570   7573   7576     1  0.0000000  0.6508444  3
   7569   7580   7583   7586     1  0.0000000  0.6508444  3
   7570   7569   7580   7583     1  180.0000771  2.0083200  2
   7570   7569   7580   7583     1  0.0000000  1.2552000  3
   7570   7573   7576   7577     1  180.0000771  0.0000000  2
   7570   7573   7576   7578     1  180.0000771  0.0000000  2
   7573   7570   7569   7580     1  180.0000771  2.0083200  2
   7573   7570   7569   7580     1  0.0000000  1.2552000  3
   7580   7583   7586   7587     1  180.0000771  0.0000000  2
   7580   7583   7586   7588     1  180.0000771  0.0000000  2
   7591   7594   7597   7600     1  0.0000000  0.6508444  3
   7594   7597   7600   7601     1  180.0000771  2.0083200  2
   7594   7597   7600   7601     1  0.0000000  1.2552000  3
   7594   7597   7600   7611     1  180.0000771  2.0083200  2
   7594   7597   7600   7611     1  0.0000000  1.2552000  3
   7597   7600   7601   7604     1  180.0000771  2.0083200  2
   7597   7600   7601   7604     1  0.0000000  1.2552000  3
   7597   7600   7611   7614     1  180.0000771  2.0083200  2
   7597   7600   7611   7614     1  0.0000000  1.2552000  3
   7597   7594   7591   7621     1  0.0000000  0.6508444  3
   7600   7601   7604   7607     1  0.0000000  0.6508444  3
   7600   7611   7614   7617     1  0.0000000  0.6508444  3
   7601   7604   7607   7608     1  180.0000771  0.0000000  2
   7601   7604   7607   7609     1  180.0000771  0.0000000  2
   7601   7600   7611   7614     1  180.0000771  2.0083200  2
   7601   7600   7611   7614     1  0.0000000  1.2552000  3
   7604   7601   7600   7611     1  180.0000771  2.0083200  2
   7604   7601   7600   7611     1  0.0000000  1.2552000  3
   7611   7614   7617   7618     1  180.0000771  0.0000000  2
   7611   7614   7617   7619     1  180.0000771  0.0000000  2
   3667   3671   3670   3672     4  180.0000771  4.6024000  2
   3677   3681   3680   3682     4  180.0000771  4.6024000  2
   3698   3702   3701   3703     4  180.0000771  4.6024000  2
   3708   3712   3711   3713     4  180.0000771  4.6024000  2
   3729   3733   3732   3734     4  180.0000771  4.6024000  2
   3739   3743   3742   3744     4  180.0000771  4.6024000  2
   3760   3764   3763   3765     4  180.0000771  4.6024000  2
   3770   3774   3773   3775     4  180.0000771  4.6024000  2
   3791   3795   3794   3796     4  180.0000771  4.6024000  2
   3801   3805   3804   3806     4  180.0000771  4.6024000  2
   3822   3826   3825   3827     4  180.0000771  4.6024000  2
   3832   3836   3835   3837     4  180.0000771  4.6024000  2
   3853   3857   3856   3858     4  180.0000771  4.6024000  2
   3863   3867   3866   3868     4  180.0000771  4.6024000  2
   3884   3888   3887   3889     4  180.0000771  4.6024000  2
   3894   3898   3897   3899     4  180.0000771  4.6024000  2
   3915   3919   3918   3920     4  180.0000771  4.6024000  2
   3925   3929   3928   3930     4  180.0000771  4.6024000  2
   3946   3950   3949   3951     4  180.0000771  4.6024000  2
   3956   3960   3959   3961     4  180.0000771  4.6024000  2
   3977   3981   3980   3982     4  180.0000771  4.6024000  2
   3987   3991   3990   3992     4  180.0000771  4.6024000  2
   4008   4012   4011   4013     4  180.0000771  4.6024000  2
   4018   4022   4021   4023     4  180.0000771  4.6024000  2
   4039   4043   4042   4044     4  180.0000771  4.6024000  2
   4049   4053   4052   4054     4  180.0000771  4.6024000  2
   4070   4074   4073   4075     4  180.0000771  4.6024000  2
   4080   4084   4083   4085     4  180.0000771  4.6024000  2
   4101   4105   4104   4106     4  180.0000771  4.6024000  2
   4111   4115   4114   4116     4  180.0000771  4.6024000  2
   4132   4136   4135   4137     4  180.0000771  4.6024000  2
   4142   4146   4145   4147     4  180.0000771  4.6024000  2
   4163   4167   4166   4168     4  180.0000771  4.6024000  2
   4173   4177   4176   4178     4  180.0000771  4.6024000  2
   4194   4198   4197   4199     4  180.0000771  4.6024000  2
   4204   4208   4207   4209     4  180.0000771  4.6024000  2
   4225   4229   4228   4230     4  180.0000771  4.6024000  2
   4235   4239   4238   4240     4  180.0000771  4.6024000  2
   4256   4260   4259   4261     4  180.0000771  4.6024000  2
   4266   4270   4269   4271     4  180.0000771  4.6024000  2
   4287   4291   4290   4292     4  180.0000771  4.6024000  2
   4297   4301   4300   4302     4  180.0000771  4.6024000  2
   4318   4322   4321   4323     4  180.0000771  4.6024000  2
   4328   4332   4331   4333     4  180.0000771  4.6024000  2
   4349   4353   4352   4354     4  180.0000771  4.6024000  2
   4359   4363   4362   4364     4  180.0000771  4.6024000  2
   4380   4384   4383   4385     4  180.0000771  4.6024000  2
   4390   4394   4393   4395     4  180.0000771  4.6024000  2
   4411   4415   4414   4416     4  180.0000771  4.6024000  2
   4421   4425   4424   4426     4  180.0000771  4.6024000  2
   4442   4446   4445   4447     4  180.0000771  4.6024000  2
   4452   4456   4455   4457     4  180.0000771  4.6024000  2
   4473   4477   4476   4478     4  180.0000771  4.6024000  2
   4483   4487   4486   4488     4  180.0000771  4.6024000  2
   4504   4508   4507   4509     4  180.0000771  4.6024000  2
   4514   4518   4517   4519     4  180.0000771  4.6024000  2
   4535   4539   4538   4540     4  180.0000771  4.6024000  2
   4545   4549   4548   4550     4  180.0000771  4.6024000  2
   4566   4570   4569   4571     4  180.0000771  4.6024000  2
   4576   4580   4579   4581     4  180.0000771  4.6024000  2
   4597   4601   4600   4602     4  180.0000771  4.6024000  2
   4607   4611   4610   4612     4  180.0000771  4.6024000  2
   4628   4632   4631   4633     4  180.0000771  4.6024000  2
   4638   4642   4641   4643     4  180.0000771  4.6024000  2
   4659   4663   4662   4664     4  180.0000771  4.6024000  2
   4669   4673   4672   4674     4  180.0000771  4.6024000  2
   4690   4694   4693   4695     4  180.0000771  4.6024000  2
   4700   4704   4703   4705     4  180.0000771  4.6024000  2
   4721   4725   4724   4726     4  180.0000771  4.6024000  2
   4731   4735   4734   4736     4  180.0000771  4.6024000  2
   4752   4756   4755   4757     4  180.0000771  4.6024000  2
   4762   4766   4765   4767     4  180.0000771  4.6024000  2
   4783   4787   4786   4788     4  180.0000771  4.6024000  2
   4793   4797   4796   4798     4  180.0000771  4.6024000  2
   4814   4818   4817   4819     4  180.0000771  4.6024000  2
   4824   4828   4827   4829     4  180.0000771  4.6024000  2
   4845   4849   4848   4850     4  180.0000771  4.6024000  2
   4855   4859   4858   4860     4  180.0000771  4.6024000  2
   4876   4880   4879   4881     4  180.0000771  4.6024000  2
   4886   4890   4889   4891     4  180.0000771  4.6024000  2
   4907   4911   4910   4912     4  180.0000771  4.6024000  2
   4917   4921   4920   4922     4  180.0000771  4.6024000  2
   4938   4942   4941   4943     4  180.0000771  4.6024000  2
   4948   4952   4951   4953     4  180.0000771  4.6024000  2
   4969   4973   4972   4974     4  180.0000771  4.6024000  2
   4979   4983   4982   4984     4  180.0000771  4.6024000  2
   5000   5004   5003   5005     4  180.0000771  4.6024000  2
   5010   5014   5013   5015     4  180.0000771  4.6024000  2
   5031   5035   5034   5036     4  180.0000771  4.6024000  2
   5041   5045   5044   5046     4  180.0000771  4.6024000  2
   5062   5066   5065   5067     4  180.0000771  4.6024000  2
   5072   5076   5075   5077     4  180.0000771  4.6024000  2
   5093   5097   5096   5098     4  180.0000771  4.6024000  2
   5103   5107   5106   5108     4  180.0000771  4.6024000  2
   5124   5128   5127   5129     4  180.0000771  4.6024000  2
   5134   5138   5137   5139     4  180.0000771  4.6024000  2
   5155   5159   5158   5160     4  180.0000771  4.6024000  2
   5165   5169   5168   5170     4  180.0000771  4.6024000  2
   5186   5190   5189   5191     4  180.0000771  4.6024000  2
   5196   5200   5199   5201     4  180.0000771  4.6024000  2
   5217   5221   5220   5222     4  180.0000771  4.6024000  2
   5227   5231   5230   5232     4  180.0000771  4.6024000  2
   5248   5252   5251   5253     4  180.0000771  4.6024000  2
   5258   5262   5261   5263     4  180.0000771  4.6024000  2
   5279   5283   5282   5284     4  180.0000771  4.6024000  2
   5289   5293   5292   5294     4  180.0000771  4.6024000  2
   5310   5314   5313   5315     4  180.0000771  4.6024000  2
   5320   5324   5323   5325     4  180.0000771  4.6024000  2
   5341   5345   5344   5346     4  180.0000771  4.6024000  2
   5351   5355   5354   5356     4  180.0000771  4.6024000  2
   5372   5376   5375   5377     4  180.0000771  4.6024000  2
   5382   5386   5385   5387     4  180.0000771  4.6024000  2
   5403   5407   5406   5408     4  180.0000771  4.6024000  2
   5413   5417   5416   5418     4  180.0000771  4.6024000  2
   5434   5438   5437   5439     4  180.0000771  4.6024000  2
   5444   5448   5447   5449     4  180.0000771  4.6024000  2
   5465   5469   5468   5470     4  180.0000771  4.6024000  2
   5475   5479   5478   5480     4  180.0000771  4.6024000  2
   5496   5500   5499   5501     4  180.0000771  4.6024000  2
   5506   5510   5509   5511     4  180.0000771  4.6024000  2
   5527   5531   5530   5532     4  180.0000771  4.6024000  2
   5537   5541   5540   5542     4  180.0000771  4.6024000  2
   5558   5562   5561   5563     4  180.0000771  4.6024000  2
   5568   5572   5571   5573     4  180.0000771  4.6024000  2
   5589   5593   5592   5594     4  180.0000771  4.6024000  2
   5599   5603   5602   5604     4  180.0000771  4.6024000  2
   5620   5624   5623   5625     4  180.0000771  4.6024000  2
   5630   5634   5633   5635     4  180.0000771  4.6024000  2
   5651   5655   5654   5656     4  180.0000771  4.6024000  2
   5661   5665   5664   5666     4  180.0000771  4.6024000  2
   5682   5686   5685   5687     4  180.0000771  4.6024000  2
   5692   5696   5695   5697     4  180.0000771  4.6024000  2
   5713   5717   5716   5718     4  180.0000771  4.6024000  2
   5723   5727   5726   5728     4  180.0000771  4.6024000  2
   5744   5748   5747   5749     4  180.0000771  4.6024000  2
   5754   5758   5757   5759     4  180.0000771  4.6024000  2
   5775   5779   5778   5780     4  180.0000771  4.6024000  2
   5785   5789   5788   5790     4  180.0000771  4.6024000  2
   5806   5810   5809   5811     4  180.0000771  4.6024000  2
   5816   5820   5819   5821     4  180.0000771  4.6024000  2
   5837   5841   5840   5842     4  180.0000771  4.6024000  2
   5847   5851   5850   5852     4  180.0000771  4.6024000  2
   5868   5872   5871   5873     4  180.0000771  4.6024000  2
   5878   5882   5881   5883     4  180.0000771  4.6024000  2
   5899   5903   5902   5904     4  180.0000771  4.6024000  2
   5909   5913   5912   5914     4  180.0000771  4.6024000  2
   5930   5934   5933   5935     4  180.0000771  4.6024000  2
   5940   5944   5943   5945     4  180.0000771  4.6024000  2
   5961   5965   5964   5966     4  180.0000771  4.6024000  2
   5971   5975   5974   5976     4  180.0000771  4.6024000  2
   5992   5996   5995   5997     4  180.0000771  4.6024000  2
   6002   6006   6005   6007     4  180.0000771  4.6024000  2
   6023   6027   6026   6028     4  180.0000771  4.6024000  2
   6033   6037   6036   6038     4  180.0000771  4.6024000  2
   6054   6058   6057   6059     4  180.0000771  4.6024000  2
   6064   6068   6067   6069     4  180.0000771  4.6024000  2
   6085   6089   6088   6090     4  180.0000771  4.6024000  2
   6095   6099   6098   6100     4  180.0000771  4.6024000  2
   6116   6120   6119   6121     4  180.0000771  4.6024000  2
   6126   6130   6129   6131     4  180.0000771  4.6024000  2
   6147   6151   6150   6152     4  180.0000771  4.6024000  2
   6157   6161   6160   6162     4  180.0000771  4.6024000  2
   6178   6182   6181   6183     4  180.0000771  4.6024000  2
   6188   6192   6191   6193     4  180.0000771  4.6024000  2
   6209   6213   6212   6214     4  180.0000771  4.6024000  2
   6219   6223   6222   6224     4  180.0000771  4.6024000  2
   6240   6244   6243   6245     4  180.0000771  4.6024000  2
   6250   6254   6253   6255     4  180.0000771  4.6024000  2
   6271   6275   6274   6276     4  180.0000771  4.6024000  2
   6281   6285   6284   6286     4  180.0000771  4.6024000  2
   6302   6306   6305   6307     4  180.0000771  4.6024000  2
   6312   6316   6315   6317     4  180.0000771  4.6024000  2
   6333   6337   6336   6338     4  180.0000771  4.6024000  2
   6343   6347   6346   6348     4  180.0000771  4.6024000  2
   6364   6368   6367   6369     4  180.0000771  4.6024000  2
   6374   6378   6377   6379     4  180.0000771  4.6024000  2
   6395   6399   6398   6400     4  180.0000771  4.6024000  2
   6405   6409   6408   6410     4  180.0000771  4.6024000  2
   6426   6430   6429   6431     4  180.0000771  4.6024000  2
   6436   6440   6439   6441     4  180.0000771  4.6024000  2
   6457   6461   6460   6462     4  180.0000771  4.6024000  2
   6467   6471   6470   6472     4  180.0000771  4.6024000  2
   6488   6492   6491   6493     4  180.0000771  4.6024000  2
   6498   6502   6501   6503     4  180.0000771  4.6024000  2
   6519   6523   6522   6524     4  180.0000771  4.6024000  2
   6529   6533   6532   6534     4  180.0000771  4.6024000  2
   6550   6554   6553   6555     4  180.0000771  4.6024000  2
   6560   6564   6563   6565     4  180.0000771  4.6024000  2
   6581   6585   6584   6586     4  180.0000771  4.6024000  2
   6591   6595   6594   6596     4  180.0000771  4.6024000  2
   6612   6616   6615   6617     4  180.0000771  4.6024000  2
   6622   6626   6625   6627     4  180.0000771  4.6024000  2
   6643   6647   6646   6648     4  180.0000771  4.6024000  2
   6653   6657   6656   6658     4  180.0000771  4.6024000  2
   6674   6678   6677   6679     4  180.0000771  4.6024000  2
   6684   6688   6687   6689     4  180.0000771  4.6024000  2
   6705   6709   6708   6710     4  180.0000771  4.6024000  2
   6715   6719   6718   6720     4  180.0000771  4.6024000  2
   6736   6740   6739   6741     4  180.0000771  4.6024000  2
   6746   6750   6749   6751     4  180.0000771  4.6024000  2
   6767   6771   6770   6772     4  180.0000771  4.6024000  2
   6777   6781   6780   6782     4  180.0000771  4.6024000  2
   6798   6802   6801   6803     4  180.0000771  4.6024000  2
   6808   6812   6811   6813     4  180.0000771  4.6024000  2
   6829   6833   6832   6834     4  180.0000771  4.6024000  2
   6839   6843   6842   6844     4  180.0000771  4.6024000  2
   6860   6864   6863   6865     4  180.0000771  4.6024000  2
   6870   6874   6873   6875     4  180.0000771  4.6024000  2
   6891   6895   6894   6896     4  180.0000771  4.6024000  2
   6901   6905   6904   6906     4  180.0000771  4.6024000  2
   6922   6926   6925   6927     4  180.0000771  4.6024000  2
   6932   6936   6935   6937     4  180.0000771  4.6024000  2
   6953   6957   6956   6958     4  180.0000771  4.6024000  2
   6963   6967   6966   6968     4  180.0000771  4.6024000  2
   6984   6988   6987   6989     4  180.0000771  4.6024000  2
   6994   6998   6997   6999     4  180.0000771  4.6024000  2
   7015   7019   7018   7020     4  180.0000771  4.6024000  2
   7025   7029   7028   7030     4  180.0000771  4.6024000  2
   7046   7050   7049   7051     4  180.0000771  4.6024000  2
   7056   7060   7059   7061     4  180.0000771  4.6024000  2
   7077   7081   7080   7082     4  180.0000771  4.6024000  2
   7087   7091   7090   7092     4  180.0000771  4.6024000  2
   7108   7112   7111   7113     4  180.0000771  4.6024000  2
   7118   7122   7121   7123     4  180.0000771  4.6024000  2
   7139   7143   7142   7144     4  180.0000771  4.6024000  2
   7149   7153   7152   7154     4  180.0000771  4.6024000  2
   7170   7174   7173   7175     4  180.0000771  4.6024000  2
   7180   7184   7183   7185     4  180.0000771  4.6024000  2
   7201   7205   7204   7206     4  180.0000771  4.6024000  2
   7211   7215   7214   7216     4  180.0000771  4.6024000  2
   7232   7236   7235   7237     4  180.0000771  4.6024000  2
   7242   7246   7245   7247     4  180.0000771  4.6024000  2
   7263   7267   7266   7268     4  180.0000771  4.6024000  2
   7273   7277   7276   7278     4  180.0000771  4.6024000  2
   7294   7298   7297   7299     4  180.0000771  4.6024000  2
   7304   7308   7307   7309     4  180.0000771  4.6024000  2
   7325   7329   7328   7330     4  180.0000771  4.6024000  2
   7335   7339   7338   7340     4  180.0000771  4.6024000  2
   7356   7360   7359   7361     4  180.0000771  4.6024000  2
   7366   7370   7369   7371     4  180.0000771  4.6024000  2
   7387   7391   7390   7392     4  180.0000771  4.6024000  2
   7397   7401   7400   7402     4  180.0000771  4.6024000  2
   7418   7422   7421   7423     4  180.0000771  4.6024000  2
   7428   7432   7431   7433     4  180.0000771  4.6024000  2
   7449   7453   7452   7454     4  180.0000771  4.6024000  2
   7459   7463   7462   7464     4  180.0000771  4.6024000  2
   7480   7484   7483   7485     4  180.0000771  4.6024000  2
   7490   7494   7493   7495     4  180.0000771  4.6024000  2
   7511   7515   7514   7516     4  180.0000771  4.6024000  2
   7521   7525   7524   7526     4  180.0000771  4.6024000  2
   7542   7546   7545   7547     4  180.0000771  4.6024000  2
   7552   7556   7555   7557     4  180.0000771  4.6024000  2
   7573   7577   7576   7578     4  180.0000771  4.6024000  2
   7583   7587   7586   7588     4  180.0000771  4.6024000  2
   7604   7608   7607   7609     4  180.0000771  4.6024000  2
   7614   7618   7617   7619     4  180.0000771  4.6024000  2
      1      2      8      9     1  0.0000000  1.0460000  1
      1      2      8      9     1  0.0000000  0.0000000  3
      1      2      8     10     1  0.0000000  1.0460000  1
      1      2      8     10     1  0.0000000  0.0000000  3
      1      5     11     12     1  0.0000000  1.0460000  1
      1      5     11     12     1  0.0000000  0.0000000  3
      1      5     11     13     1  0.0000000  1.0460000  1
      1      5     11     13     1  0.0000000  0.0000000  3
      2      1      5      6     1  0.0000000  1.6038667  3
      2      1      5      7     1  0.0000000  1.6038667  3
      2      8     14     15     1  0.0000000  0.6508444  3
      2      8     14     16     1  0.0000000  0.6508444  3
      5      1      2      3     1  0.0000000  1.6038667  3
      3      2      8     14     1  0.0000000  0.6508444  3
      3      2      8      9     1  0.0000000  0.6508444  3
      3      2      8     10     1  0.0000000  0.6508444  3
      5      1      2      4     1  0.0000000  1.6038667  3
      4      2      8     14     1  0.0000000  0.6508444  3
      4      2      8      9     1  0.0000000  0.6508444  3
      4      2      8     10     1  0.0000000  0.6508444  3
      5     11     17     18     1  0.0000000  0.6508444  3
      5     11     17     19     1  0.0000000  0.6508444  3
      6      5     11     17     1  0.0000000  0.6508444  3
      6      5     11     12     1  0.0000000  0.6508444  3
      6      5     11     13     1  0.0000000  0.6508444  3
      7      5     11     17     1  0.0000000  0.6508444  3
      7      5     11     12     1  0.0000000  0.6508444  3
      7      5     11     13     1  0.0000000  0.6508444  3
      9      8     14     20     1  0.0000000  0.6508444  3
      9      8     14     15     1  0.0000000  0.6508444  3
      9      8     14     16     1  0.0000000  0.6508444  3
     10      8     14     20     1  0.0000000  0.6508444  3
     10      8     14     15     1  0.0000000  0.6508444  3
     10      8     14     16     1  0.0000000  0.6508444  3
     12     11     17     21     1  0.0000000  0.6508444  3
     12     11     17     18     1  0.0000000  0.6508444  3
     12     11     17     19     1  0.0000000  0.6508444  3
     13     11     17     21     1  0.0000000  0.6508444  3
     13     11     17     18     1  0.0000000  0.6508444  3
     13     11     17     19     1  0.0000000  0.6508444  3
     14     20     28     29     1  0.0000000  1.2552000  3
     14     20     28     30     1  0.0000000  1.2552000  3
     14     20     31     32     1  0.0000000  1.2552000  3
     14     20     31     33     1  0.0000000  1.2552000  3
     15     14     20     28     1  0.0000000  1.2552000  3
     15     14     20     31     1  0.0000000  1.2552000  3
     16     14     20     28     1  0.0000000  1.2552000  3
     16     14     20     31     1  0.0000000  1.2552000  3
     17     21     22     23     1  0.0000000  1.2552000  3
     17     21     22     24     1  0.0000000  1.2552000  3
     17     21     25     26     1  0.0000000  1.2552000  3
     17     21     25     27     1  0.0000000  1.2552000  3
     18     17     21     22     1  0.0000000  1.2552000  3
     18     17     21     25     1  0.0000000  1.2552000  3
     19     17     21     22     1  0.0000000  1.2552000  3
     19     17     21     25     1  0.0000000  1.2552000  3
     20     28     40     41     1  0.0000000  0.6508444  3
     20     28     40     42     1  0.0000000  0.6508444  3
     20     31     43     44     1  0.0000000  0.6508444  3
     20     31     43     45     1  0.0000000  0.6508444  3
     21     22     34     35     1  0.0000000  0.6508444  3
     21     22     34     36     1  0.0000000  0.6508444  3
     21     25     37     38     1  0.0000000  0.6508444  3
     21     25     37     39     1  0.0000000  0.6508444  3
     22     21     25     26     1  0.0000000  1.2552000  3
     22     21     25     27     1  0.0000000  1.2552000  3
     22     34     55     56     1  0.0000000  0.6508444  3
     22     34     55     57     1  0.0000000  0.6508444  3
     23     22     21     25     1  0.0000000  1.2552000  3
     23     22     34     55     1  0.0000000  0.6508444  3
     23     22     34     35     1  0.0000000  0.6508444  3
     23     22     34     36     1  0.0000000  0.6508444  3
     24     22     21     25     1  0.0000000  1.2552000  3
     24     22     34     55     1  0.0000000  0.6508444  3
     24     22     34     35     1  0.0000000  0.6508444  3
     24     22     34     36     1  0.0000000  0.6508444  3
     25     37     52     53     1  0.0000000  0.6508444  3
     25     37     52     54     1  0.0000000  0.6508444  3
     26     25     37     52     1  0.0000000  0.6508444  3
     26     25     37     38     1  0.0000000  0.6508444  3
     26     25     37     39     1  0.0000000  0.6508444  3
     27     25     37     52     1  0.0000000  0.6508444  3
     27     25     37     38     1  0.0000000  0.6508444  3
     27     25     37     39     1  0.0000000  0.6508444  3
     28     20     31     32     1  0.0000000  1.2552000  3
     28     20     31     33     1  0.0000000  1.2552000  3
     28     40     49     50     1  0.0000000  0.6508444  3
     28     40     49     51     1  0.0000000  0.6508444  3
     29     28     20     31     1  0.0000000  1.2552000  3
     29     28     40     49     1  0.0000000  0.6508444  3
     29     28     40     41     1  0.0000000  0.6508444  3
     29     28     40     42     1  0.0000000  0.6508444  3
     30     28     20     31     1  0.0000000  1.2552000  3
     30     28     40     49     1  0.0000000  0.6508444  3
     30     28     40     41     1  0.0000000  0.6508444  3
     30     28     40     42     1  0.0000000  0.6508444  3
     31     43     46     47     1  0.0000000  0.6508444  3
     31     43     46     48     1  0.0000000  0.6508444  3
     32     31     43     46     1  0.0000000  0.6508444  3
     32     31     43     44     1  0.0000000  0.6508444  3
     32     31     43     45     1  0.0000000  0.6508444  3
     33     31     43     46     1  0.0000000  0.6508444  3
     33     31     43     44     1  0.0000000  0.6508444  3
     33     31     43     45     1  0.0000000  0.6508444  3
     35     34     55    173     1  0.0000000  1.0460000  1
     35     34     55    173     1  0.0000000  0.0000000  3
     35     34     55     56     1  0.0000000  0.6508444  3
     35     34     55     57     1  0.0000000  0.6508444  3
     36     34     55    173     1  0.0000000  1.0460000  1
     36     34     55    173     1  0.0000000  0.0000000  3
     36     34     55     56     1  0.0000000  0.6508444  3
     36     34     55     57     1  0.0000000  0.6508444  3
     38     37     52    144     1  0.0000000  1.0460000  1
     38     37     52    144     1  0.0000000  0.0000000  3
     38     37     52     53     1  0.0000000  0.6508444  3
     38     37     52     54     1  0.0000000  0.6508444  3
     39     37     52    144     1  0.0000000  1.0460000  1
     39     37     52    144     1  0.0000000  0.0000000  3
     39     37     52     53     1  0.0000000  0.6508444  3
     39     37     52     54     1  0.0000000  0.6508444  3
     41     40     49    115     1  0.0000000  1.0460000  1
     41     40     49    115     1  0.0000000  0.0000000  3
     41     40     49     50     1  0.0000000  0.6508444  3
     41     40     49     51     1  0.0000000  0.6508444  3
     42     40     49    115     1  0.0000000  1.0460000  1
     42     40     49    115     1  0.0000000  0.0000000  3
     42     40     49     50     1  0.0000000  0.6508444  3
     42     40     49     51     1  0.0000000  0.6508444  3
     44     43     46     86     1  0.0000000  1.0460000  1
     44     43     46     86     1  0.0000000  0.0000000  3
     44     43     46     47     1  0.0000000  0.6508444  3
     44     43     46     48     1  0.0000000  0.6508444  3
     45     43     46     86     1  0.0000000  1.0460000  1
     45     43     46     86     1  0.0000000  0.0000000  3
     45     43     46     47     1  0.0000000  0.6508444  3
     45     43     46     48     1  0.0000000  0.6508444  3
     46     86     77     78     1  0.0000000  1.6038667  3
     46     86     77     79     1  0.0000000  1.6038667  3
     47     46     86     77     1  0.0000000  1.6038667  3
     48     46     86     77     1  0.0000000  1.6038667  3
     49    115    106    107     1  0.0000000  1.6038667  3
     49    115    106    108     1  0.0000000  1.6038667  3
     50     49    115    106     1  0.0000000  1.6038667  3
     51     49    115    106     1  0.0000000  1.6038667  3
     52    144    135    136     1  0.0000000  1.6038667  3
     52    144    135    137     1  0.0000000  1.6038667  3
     53     52    144    135     1  0.0000000  1.6038667  3
     54     52    144    135     1  0.0000000  1.6038667  3
     55    173    164    165     1  0.0000000  1.6038667  3
     55    173    164    166     1  0.0000000  1.6038667  3
     56     55    173    164     1  0.0000000  1.6038667  3
     57     55    173    164     1  0.0000000  1.6038667  3
     58     59     71     72     1  0.0000000  0.6508444  3
     58     59     71     73     1  0.0000000  0.6508444  3
     58     62     74     75     1  0.0000000  0.6508444  3
     58     62     74     76     1  0.0000000  0.6508444  3
     58     65     68     69     1  0.0000000  0.6508444  3
     58     65     68     70     1  0.0000000  0.6508444  3
     59     58     62     63     1  0.0000000  1.2552000  3
     59     58     62     64     1  0.0000000  1.2552000  3
     59     58     65     66     1  0.0000000  1.2552000  3
     59     58     65     67     1  0.0000000  1.2552000  3
     59     71     83     84     1  0.0000000  0.6508444  3
     59     71     83     85     1  0.0000000  0.6508444  3
     60     59     58     62     1  0.0000000  1.2552000  3
     60     59     58     65     1  0.0000000  1.2552000  3
     60     59     71     83     1  0.0000000  0.6508444  3
     60     59     71     72     1  0.0000000  0.6508444  3
     60     59     71     73     1  0.0000000  0.6508444  3
     61     59     58     62     1  0.0000000  1.2552000  3
     61     59     58     65     1  0.0000000  1.2552000  3
     61     59     71     83     1  0.0000000  0.6508444  3
     61     59     71     72     1  0.0000000  0.6508444  3
     61     59     71     73     1  0.0000000  0.6508444  3
     62     58     65     66     1  0.0000000  1.2552000  3
     62     58     65     67     1  0.0000000  1.2552000  3
     62     74     80     81     1  0.0000000  0.6508444  3
     62     74     80     82     1  0.0000000  0.6508444  3
     63     62     58     65     1  0.0000000  1.2552000  3
     63     62     74     80     1  0.0000000  0.6508444  3
     63     62     74     75     1  0.0000000  0.6508444  3
     63     62     74     76     1  0.0000000  0.6508444  3
     64     62     58     65     1  0.0000000  1.2552000  3
     64     62     74     80     1  0.0000000  0.6508444  3
     64     62     74     75     1  0.0000000  0.6508444  3
     64     62     74     76     1  0.0000000  0.6508444  3
     65     68     77     78     1  0.0000000  0.6508444  3
     65     68     77     79     1  0.0000000  0.6508444  3
     66     65     68     77     1  0.0000000  0.6508444  3
     66     65     68     69     1  0.0000000  0.6508444  3
     66     65     68     70     1  0.0000000  0.6508444  3
     67     65     68     77     1  0.0000000  0.6508444  3
     67     65     68     69     1  0.0000000  0.6508444  3
     67     65     68     70     1  0.0000000  0.6508444  3
     69     68     77     86     1  0.0000000  1.0460000  1
     69     68     77     86     1  0.0000000  0.0000000  3
     69     68     77     78     1  0.0000000  0.6508444  3
     69     68     77     79     1  0.0000000  0.6508444  3
     70     68     77     86     1  0.0000000  1.0460000  1
     70     68     77     86     1  0.0000000  0.0000000  3
     70     68     77     78     1  0.0000000  0.6508444  3
     70     68     77     79     1  0.0000000  0.6508444  3
     72     71     83    231     1  0.0000000  1.0460000  1
     72     71     83    231     1  0.0000000  0.0000000  3
     72     71     83     84     1  0.0000000  0.6508444  3
     72     71     83     85     1  0.0000000  0.6508444  3
     73     71     83    231     1  0.0000000  1.0460000  1
     73     71     83    231     1  0.0000000  0.0000000  3
     73     71     83     84     1  0.0000000  0.6508444  3
     73     71     83     85     1  0.0000000  0.6508444  3
     75     74     80    202     1  0.0000000  1.0460000  1
     75     74     80    202     1  0.0000000  0.0000000  3
     75     74     80     81     1  0.0000000  0.6508444  3
     75     74     80     82     1  0.0000000  0.6508444  3
     76     74     80    202     1  0.0000000  1.0460000  1
     76     74     80    202     1  0.0000000  0.0000000  3
     76     74     80     81     1  0.0000000  0.6508444  3
     76     74     80     82     1  0.0000000  0.6508444  3
     80    202    193    194     1  0.0000000  1.6038667  3
     80    202    193    195     1  0.0000000  1.6038667  3
     81     80    202    193     1  0.0000000  1.6038667  3
     82     80    202    193     1  0.0000000  1.6038667  3
     83    231    222    223     1  0.0000000  1.6038667  3
     83    231    222    224     1  0.0000000  1.6038667  3
     84     83    231    222     1  0.0000000  1.6038667  3
     85     83    231    222     1  0.0000000  1.6038667  3
     87     88    100    101     1  0.0000000  0.6508444  3
     87     88    100    102     1  0.0000000  0.6508444  3
     87     91    103    104     1  0.0000000  0.6508444  3
     87     91    103    105     1  0.0000000  0.6508444  3
     87     94     97     98     1  0.0000000  0.6508444  3
     87     94     97     99     1  0.0000000  0.6508444  3
     88     87     91     92     1  0.0000000  1.2552000  3
     88     87     91     93     1  0.0000000  1.2552000  3
     88     87     94     95     1  0.0000000  1.2552000  3
     88     87     94     96     1  0.0000000  1.2552000  3
     88    100    112    113     1  0.0000000  0.6508444  3
     88    100    112    114     1  0.0000000  0.6508444  3
     89     88     87     91     1  0.0000000  1.2552000  3
     89     88     87     94     1  0.0000000  1.2552000  3
     89     88    100    112     1  0.0000000  0.6508444  3
     89     88    100    101     1  0.0000000  0.6508444  3
     89     88    100    102     1  0.0000000  0.6508444  3
     90     88     87     91     1  0.0000000  1.2552000  3
     90     88     87     94     1  0.0000000  1.2552000  3
     90     88    100    112     1  0.0000000  0.6508444  3
     90     88    100    101     1  0.0000000  0.6508444  3
     90     88    100    102     1  0.0000000  0.6508444  3
     91     87     94     95     1  0.0000000  1.2552000  3
     91     87     94     96     1  0.0000000  1.2552000  3
     91    103    109    110     1  0.0000000  0.6508444  3
     91    103    109    111     1  0.0000000  0.6508444  3
     92     91     87     94     1  0.0000000  1.2552000  3
     92     91    103    109     1  0.0000000  0.6508444  3
     92     91    103    104     1  0.0000000  0.6508444  3
     92     91    103    105     1  0.0000000  0.6508444  3
     93     91     87     94     1  0.0000000  1.2552000  3
     93     91    103    109     1  0.0000000  0.6508444  3
     93     91    103    104     1  0.0000000  0.6508444  3
     93     91    103    105     1  0.0000000  0.6508444  3
     94     97    106    107     1  0.0000000  0.6508444  3
     94     97    106    108     1  0.0000000  0.6508444  3
     95     94     97    106     1  0.0000000  0.6508444  3
     95     94     97     98     1  0.0000000  0.6508444  3
     95     94     97     99     1  0.0000000  0.6508444  3
     96     94     97    106     1  0.0000000  0.6508444  3
     96     94     97     98     1  0.0000000  0.6508444  3
     96     94     97     99     1  0.0000000  0.6508444  3
     98     97    106    115     1  0.0000000  1.0460000  1
     98     97    106    115     1  0.0000000  0.0000000  3
     98     97    106    107     1  0.0000000  0.6508444  3
     98     97    106    108     1  0.0000000  0.6508444  3
     99     97    106    115     1  0.0000000  1.0460000  1
     99     97    106    115     1  0.0000000  0.0000000  3
     99     97    106    107     1  0.0000000  0.6508444  3
     99     97    106    108     1  0.0000000  0.6508444  3
    101    100    112    289     1  0.0000000  1.0460000  1
    101    100    112    289     1  0.0000000  0.0000000  3
    101    100    112    113     1  0.0000000  0.6508444  3
    101    100    112    114     1  0.0000000  0.6508444  3
    102    100    112    289     1  0.0000000  1.0460000  1
    102    100    112    289     1  0.0000000  0.0000000  3
    102    100    112    113     1  0.0000000  0.6508444  3
    102    100    112    114     1  0.0000000  0.6508444  3
    104    103    109    260     1  0.0000000  1.0460000  1
    104    103    109    260     1  0.0000000  0.0000000  3
    104    103    109    110     1  0.0000000  0.6508444  3
    104    103    109    111     1  0.0000000  0.6508444  3
    105    103    109    260     1  0.0000000  1.0460000  1
    105    103    109    260     1  0.0000000  0.0000000  3
    105    103    109    110     1  0.0000000  0.6508444  3
    105    103    109    111     1  0.0000000  0.6508444  3
    109    260    251    252     1  0.0000000  1.6038667  3
    109    260    251    253     1  0.0000000  1.6038667  3
    110    109    260    251     1  0.0000000  1.6038667  3
    111    109    260    251     1  0.0000000  1.6038667  3
    112    289    280    281     1  0.0000000  1.6038667  3
    112    289    280    282     1  0.0000000  1.6038667  3
    113    112    289    280     1  0.0000000  1.6038667  3
    114    112    289    280     1  0.0000000  1.6038667  3
    116    117    129    130     1  0.0000000  0.6508444  3
    116    117    129    131     1  0.0000000  0.6508444  3
    116    120    132    133     1  0.0000000  0.6508444  3
    116    120    132    134     1  0.0000000  0.6508444  3
    116    123    126    127     1  0.0000000  0.6508444  3
    116    123    126    128     1  0.0000000  0.6508444  3
    117    116    120    121     1  0.0000000  1.2552000  3
    117    116    120    122     1  0.0000000  1.2552000  3
    117    116    123    124     1  0.0000000  1.2552000  3
    117    116    123    125     1  0.0000000  1.2552000  3
    117    129    141    142     1  0.0000000  0.6508444  3
    117    129    141    143     1  0.0000000  0.6508444  3
    118    117    116    120     1  0.0000000  1.2552000  3
    118    117    116    123     1  0.0000000  1.2552000  3
    118    117    129    141     1  0.0000000  0.6508444  3
    118    117    129    130     1  0.0000000  0.6508444  3
    118    117    129    131     1  0.0000000  0.6508444  3
    119    117    116    120     1  0.0000000  1.2552000  3
    119    117    116    123     1  0.0000000  1.2552000  3
    119    117    129    141     1  0.0000000  0.6508444  3
    119    117    129    130     1  0.0000000  0.6508444  3
    119    117    129    131     1  0.0000000  0.6508444  3
    120    116    123    124     1  0.0000000  1.2552000  3
    120    116    123    125     1  0.0000000  1.2552000  3
    120    132    138    139     1  0.0000000  0.6508444  3
    120    132    138    140     1  0.0000000  0.6508444  3
    121    120    116    123     1  0.0000000  1.2552000  3
    121    120    132    138     1  0.0000000  0.6508444  3
    121    120    132    133     1  0.0000000  0.6508444  3
    121    120    132    134     1  0.0000000  0.6508444  3
    122    120    116    123     1  0.0000000  1.2552000  3
    122    120    132    138     1  0.0000000  0.6508444  3
    122    120    132    133     1  0.0000000  0.6508444  3
    122    120    132    134     1  0.0000000  0.6508444  3
    123    126    135    136     1  0.0000000  0.6508444  3
    123    126    135    137     1  0.0000000  0.6508444  3
    124    123    126    135     1  0.0000000  0.6508444  3
    124    123    126    127     1  0.0000000  0.6508444  3
    124    123    126    128     1  0.0000000  0.6508444  3
    125    123    126    135     1  0.0000000  0.6508444  3
    125    123    126    127     1  0.0000000  0.6508444  3
    125    123    126    128     1  0.0000000  0.6508444  3
    127    126    135    144     1  0.0000000  1.0460000  1
    127    126    135    144     1  0.0000000  0.0000000  3
    127    126    135    136     1  0.0000000  0.6508444  3
    127    126    135    137     1  0.0000000  0.6508444  3
    128    126    135    144     1  0.0000000  1.0460000  1
    128    126    135    144     1  0.0000000  0.0000000  3
    128    126    135    136     1  0.0000000  0.6508444  3
    128    126    135    137     1  0.0000000  0.6508444  3
    130    129    141    347     1  0.0000000  1.0460000  1
    130    129    141    347     1  0.0000000  0.0000000  3
    130    129    141    142     1  0.0000000  0.6508444  3
    130    129    141    143     1  0.0000000  0.6508444  3
    131    129    141    347     1  0.0000000  1.0460000  1
    131    129    141    347     1  0.0000000  0.0000000  3
    131    129    141    142     1  0.0000000  0.6508444  3
    131    129    141    143     1  0.0000000  0.6508444  3
    133    132    138    318     1  0.0000000  1.0460000  1
    133    132    138    318     1  0.0000000  0.0000000  3
    133    132    138    139     1  0.0000000  0.6508444  3
    133    132    138    140     1  0.0000000  0.6508444  3
    134    132    138    318     1  0.0000000  1.0460000  1
    134    132    138    318     1  0.0000000  0.0000000  3
    134    132    138    139     1  0.0000000  0.6508444  3
    134    132    138    140     1  0.0000000  0.6508444  3
    138    318    309    310     1  0.0000000  1.6038667  3
    138    318    309    311     1  0.0000000  1.6038667  3
    139    138    318    309     1  0.0000000  1.6038667  3
    140    138    318    309     1  0.0000000  1.6038667  3
    141    347    338    339     1  0.0000000  1.6038667  3
    141    347    338    340     1  0.0000000  1.6038667  3
    142    141    347    338     1  0.0000000  1.6038667  3
    143    141    347    338     1  0.0000000  1.6038667  3
    145    146    158    159     1  0.0000000  0.6508444  3
    145    146    158    160     1  0.0000000  0.6508444  3
    145    149    161    162     1  0.0000000  0.6508444  3
    145    149    161    163     1  0.0000000  0.6508444  3
    145    152    155    156     1  0.0000000  0.6508444  3
    145    152    155    157     1  0.0000000  0.6508444  3
    146    145    149    150     1  0.0000000  1.2552000  3
    146    145    149    151     1  0.0000000  1.2552000  3
    146    145    152    153     1  0.0000000  1.2552000  3
    146    145    152    154     1  0.0000000  1.2552000  3
    146    158    170    171     1  0.0000000  0.6508444  3
    146    158    170    172     1  0.0000000  0.6508444  3
    147    146    145    149     1  0.0000000  1.2552000  3
    147    146    145    152     1  0.0000000  1.2552000  3
    147    146    158    170     1  0.0000000  0.6508444  3
    147    146    158    159     1  0.0000000  0.6508444  3
    147    146    158    160     1  0.0000000  0.6508444  3
    148    146    145    149     1  0.0000000  1.2552000  3
    148    146    145    152     1  0.0000000  1.2552000  3
    148    146    158    170     1  0.0000000  0.6508444  3
    148    146    158    159     1  0.0000000  0.6508444  3
    148    146    158    160     1  0.0000000  0.6508444  3
    149    145    152    153     1  0.0000000  1.2552000  3
    149    145    152    154     1  0.0000000  1.2552000  3
    149    161    167    168     1  0.0000000  0.6508444  3
    149    161    167    169     1  0.0000000  0.6508444  3
    150    149    145    152     1  0.0000000  1.2552000  3
    150    149    161    167     1  0.0000000  0.6508444  3
    150    149    161    162     1  0.0000000  0.6508444  3
    150    149    161    163     1  0.0000000  0.6508444  3
    151    149    145    152     1  0.0000000  1.2552000  3
    151    149    161    167     1  0.0000000  0.6508444  3
    151    149    161    162     1  0.0000000  0.6508444  3
    151    149    161    163     1  0.0000000  0.6508444  3
    152    155    164    165     1  0.0000000  0.6508444  3
    152    155    164    166     1  0.0000000  0.6508444  3
    153    152    155    164     1  0.0000000  0.6508444  3
    153    152    155    156     1  0.0000000  0.6508444  3
    153    152    155    157     1  0.0000000  0.6508444  3
    154    152    155    164     1  0.0000000  0.6508444  3
    154    152    155    156     1  0.0000000  0.6508444  3
    154    152    155    157     1  0.0000000  0.6508444  3
    156    155    164    173     1  0.0000000  1.0460000  1
    156    155    164    173     1  0.0000000  0.0000000  3
    156    155    164    165     1  0.0000000  0.6508444  3
    156    155    164    166     1  0.0000000  0.6508444  3
    157    155    164    173     1  0.0000000  1.0460000  1
    157    155    164    173     1  0.0000000  0.0000000  3
    157    155    164    165     1  0.0000000  0.6508444  3
    157    155    164    166     1  0.0000000  0.6508444  3
    159    158    170    405     1  0.0000000  1.0460000  1
    159    158    170    405     1  0.0000000  0.0000000  3
    159    158    170    171     1  0.0000000  0.6508444  3
    159    158    170    172     1  0.0000000  0.6508444  3
    160    158    170    405     1  0.0000000  1.0460000  1
    160    158    170    405     1  0.0000000  0.0000000  3
    160    158    170    171     1  0.0000000  0.6508444  3
    160    158    170    172     1  0.0000000  0.6508444  3
    162    161    167    376     1  0.0000000  1.0460000  1
    162    161    167    376     1  0.0000000  0.0000000  3
    162    161    167    168     1  0.0000000  0.6508444  3
    162    161    167    169     1  0.0000000  0.6508444  3
    163    161    167    376     1  0.0000000  1.0460000  1
    163    161    167    376     1  0.0000000  0.0000000  3
    163    161    167    168     1  0.0000000  0.6508444  3
    163    161    167    169     1  0.0000000  0.6508444  3
    167    376    367    368     1  0.0000000  1.6038667  3
    167    376    367    369     1  0.0000000  1.6038667  3
    168    167    376    367     1  0.0000000  1.6038667  3
    169    167    376    367     1  0.0000000  1.6038667  3
    170    405    396    397     1  0.0000000  1.6038667  3
    170    405    396    398     1  0.0000000  1.6038667  3
    171    170    405    396     1  0.0000000  1.6038667  3
    172    170    405    396     1  0.0000000  1.6038667  3
    174    175    187    188     1  0.0000000  0.6508444  3
    174    175    187    189     1  0.0000000  0.6508444  3
    174    178    190    191     1  0.0000000  0.6508444  3
    174    178    190    192     1  0.0000000  0.6508444  3
    174    181    184    185     1  0.0000000  0.6508444  3
    174    181    184    186     1  0.0000000  0.6508444  3
    175    174    178    179     1  0.0000000  1.2552000  3
    175    174    178    180     1  0.0000000  1.2552000  3
    175    174    181    182     1  0.0000000  1.2552000  3
    175    174    181    183     1  0.0000000  1.2552000  3
    175    187    199    200     1  0.0000000  0.6508444  3
    175    187    199    201     1  0.0000000  0.6508444  3
    176    175    174    178     1  0.0000000  1.2552000  3
    176    175    174    181     1  0.0000000  1.2552000  3
    176    175    187    199     1  0.0000000  0.6508444  3
    176    175    187    188     1  0.0000000  0.6508444  3
    176    175    187    189     1  0.0000000  0.6508444  3
    177    175    174    178     1  0.0000000  1.2552000  3
    177    175    174    181     1  0.0000000  1.2552000  3
    177    175    187    199     1  0.0000000  0.6508444  3
    177    175    187    188     1  0.0000000  0.6508444  3
    177    175    187    189     1  0.0000000  0.6508444  3
    178    174    181    182     1  0.0000000  1.2552000  3
    178    174    181    183     1  0.0000000  1.2552000  3
    178    190    196    197     1  0.0000000  0.6508444  3
    178    190    196    198     1  0.0000000  0.6508444  3
    179    178    174    181     1  0.0000000  1.2552000  3
    179    178    190    196     1  0.0000000  0.6508444  3
    179    178    190    191     1  0.0000000  0.6508444  3
    179    178    190    192     1  0.0000000  0.6508444  3
    180    178    174    181     1  0.0000000  1.2552000  3
    180    178    190    196     1  0.0000000  0.6508444  3
    180    178    190    191     1  0.0000000  0.6508444  3
    180    178    190    192     1  0.0000000  0.6508444  3
    181    184    193    194     1  0.0000000  0.6508444  3
    181    184    193    195     1  0.0000000  0.6508444  3
    182    181    184    193     1  0.0000000  0.6508444  3
    182    181    184    185     1  0.0000000  0.6508444  3
    182    181    184    186     1  0.0000000  0.6508444  3
    183    181    184    193     1  0.0000000  0.6508444  3
    183    181    184    185     1  0.0000000  0.6508444  3
    183    181    184    186     1  0.0000000  0.6508444  3
    185    184    193    202     1  0.0000000  1.0460000  1
    185    184    193    202     1  0.0000000  0.0000000  3
    185    184    193    194     1  0.0000000  0.6508444  3
    185    184    193    195     1  0.0000000  0.6508444  3
    186    184    193    202     1  0.0000000  1.0460000  1
    186    184    193    202     1  0.0000000  0.0000000  3
    186    184    193    194     1  0.0000000  0.6508444  3
    186    184    193    195     1  0.0000000  0.6508444  3
    188    187    199    463     1  0.0000000  1.0460000  1
    188    187    199    463     1  0.0000000  0.0000000  3
    188    187    199    200     1  0.0000000  0.6508444  3
    188    187    199    201     1  0.0000000  0.6508444  3
    189    187    199    463     1  0.0000000  1.0460000  1
    189    187    199    463     1  0.0000000  0.0000000  3
    189    187    199    200     1  0.0000000  0.6508444  3
    189    187    199    201     1  0.0000000  0.6508444  3
    191    190    196    434     1  0.0000000  1.0460000  1
    191    190    196    434     1  0.0000000  0.0000000  3
    191    190    196    197     1  0.0000000  0.6508444  3
    191    190    196    198     1  0.0000000  0.6508444  3
    192    190    196    434     1  0.0000000  1.0460000  1
    192    190    196    434     1  0.0000000  0.0000000  3
    192    190    196    197     1  0.0000000  0.6508444  3
    192    190    196    198     1  0.0000000  0.6508444  3
    196    434    425    426     1  0.0000000  1.6038667  3
    196    434    425    427     1  0.0000000  1.6038667  3
    197    196    434    425     1  0.0000000  1.6038667  3
    198    196    434    425     1  0.0000000  1.6038667  3
    199    463    454    455     1  0.0000000  1.6038667  3
    199    463    454    456     1  0.0000000  1.6038667  3
    200    199    463    454     1  0.0000000  1.6038667  3
    201    199    463    454     1  0.0000000  1.6038667  3
    203    204    216    217     1  0.0000000  0.6508444  3
    203    204    216    218     1  0.0000000  0.6508444  3
    203    207    219    220     1  0.0000000  0.6508444  3
    203    207    219    221     1  0.0000000  0.6508444  3
    203    210    213    214     1  0.0000000  0.6508444  3
    203    210    213    215     1  0.0000000  0.6508444  3
    204    203    207    208     1  0.0000000  1.2552000  3
    204    203    207    209     1  0.0000000  1.2552000  3
    204    203    210    211     1  0.0000000  1.2552000  3
    204    203    210    212     1  0.0000000  1.2552000  3
    204    216    228    229     1  0.0000000  0.6508444  3
    204    216    228    230     1  0.0000000  0.6508444  3
    205    204    203    207     1  0.0000000  1.2552000  3
    205    204    203    210     1  0.0000000  1.2552000  3
    205    204    216    228     1  0.0000000  0.6508444  3
    205    204    216    217     1  0.0000000  0.6508444  3
    205    204    216    218     1  0.0000000  0.6508444  3
    206    204    203    207     1  0.0000000  1.2552000  3
    206    204    203    210     1  0.0000000  1.2552000  3
    206    204    216    228     1  0.0000000  0.6508444  3
    206    204    216    217     1  0.0000000  0.6508444  3
    206    204    216    218     1  0.0000000  0.6508444  3
    207    203    210    211     1  0.0000000  1.2552000  3
    207    203    210    212     1  0.0000000  1.2552000  3
    207    219    225    226     1  0.0000000  0.6508444  3
    207    219    225    227     1  0.0000000  0.6508444  3
    208    207    203    210     1  0.0000000  1.2552000  3
    208    207    219    225     1  0.0000000  0.6508444  3
    208    207    219    220     1  0.0000000  0.6508444  3
    208    207    219    221     1  0.0000000  0.6508444  3
    209    207    203    210     1  0.0000000  1.2552000  3
    209    207    219    225     1  0.0000000  0.6508444  3
    209    207    219    220     1  0.0000000  0.6508444  3
    209    207    219    221     1  0.0000000  0.6508444  3
    210    213    222    223     1  0.0000000  0.6508444  3
    210    213    222    224     1  0.0000000  0.6508444  3
    211    210    213    222     1  0.0000000  0.6508444  3
    211    210    213    214     1  0.0000000  0.6508444  3
    211    210    213    215     1  0.0000000  0.6508444  3
    212    210    213    222     1  0.0000000  0.6508444  3
    212    210    213    214     1  0.0000000  0.6508444  3
    212    210    213    215     1  0.0000000  0.6508444  3
    214    213    222    231     1  0.0000000  1.0460000  1
    214    213    222    231     1  0.0000000  0.0000000  3
    214    213    222    223     1  0.0000000  0.6508444  3
    214    213    222    224     1  0.0000000  0.6508444  3
    215    213    222    231     1  0.0000000  1.0460000  1
    215    213    222    231     1  0.0000000  0.0000000  3
    215    213    222    223     1  0.0000000  0.6508444  3
    215    213    222    224     1  0.0000000  0.6508444  3
    217    216    228    521     1  0.0000000  1.0460000  1
    217    216    228    521     1  0.0000000  0.0000000  3
    217    216    228    229     1  0.0000000  0.6508444  3
    217    216    228    230     1  0.0000000  0.6508444  3
    218    216    228    521     1  0.0000000  1.0460000  1
    218    216    228    521     1  0.0000000  0.0000000  3
    218    216    228    229     1  0.0000000  0.6508444  3
    218    216    228    230     1  0.0000000  0.6508444  3
    220    219    225    492     1  0.0000000  1.0460000  1
    220    219    225    492     1  0.0000000  0.0000000  3
    220    219    225    226     1  0.0000000  0.6508444  3
    220    219    225    227     1  0.0000000  0.6508444  3
    221    219    225    492     1  0.0000000  1.0460000  1
    221    219    225    492     1  0.0000000  0.0000000  3
    221    219    225    226     1  0.0000000  0.6508444  3
    221    219    225    227     1  0.0000000  0.6508444  3
    225    492    483    484     1  0.0000000  1.6038667  3
    225    492    483    485     1  0.0000000  1.6038667  3
    226    225    492    483     1  0.0000000  1.6038667  3
    227    225    492    483     1  0.0000000  1.6038667  3
    228    521    512    513     1  0.0000000  1.6038667  3
    228    521    512    514     1  0.0000000  1.6038667  3
    229    228    521    512     1  0.0000000  1.6038667  3
    230    228    521    512     1  0.0000000  1.6038667  3
    232    233    245    246     1  0.0000000  0.6508444  3
    232    233    245    247     1  0.0000000  0.6508444  3
    232    236    248    249     1  0.0000000  0.6508444  3
    232    236    248    250     1  0.0000000  0.6508444  3
    232    239    242    243     1  0.0000000  0.6508444  3
    232    239    242    244     1  0.0000000  0.6508444  3
    233    232    236    237     1  0.0000000  1.2552000  3
    233    232    236    238     1  0.0000000  1.2552000  3
    233    232    239    240     1  0.0000000  1.2552000  3
    233    232    239    241     1  0.0000000  1.2552000  3
    233    245    257    258     1  0.0000000  0.6508444  3
    233    245    257    259     1  0.0000000  0.6508444  3
    234    233    232    236     1  0.0000000  1.2552000  3
    234    233    232    239     1  0.0000000  1.2552000  3
    234    233    245    257     1  0.0000000  0.6508444  3
    234    233    245    246     1  0.0000000  0.6508444  3
    234    233    245    247     1  0.0000000  0.6508444  3
    235    233    232    236     1  0.0000000  1.2552000  3
    235    233    232    239     1  0.0000000  1.2552000  3
    235    233    245    257     1  0.0000000  0.6508444  3
    235    233    245    246     1  0.0000000  0.6508444  3
    235    233    245    247     1  0.0000000  0.6508444  3
    236    232    239    240     1  0.0000000  1.2552000  3
    236    232    239    241     1  0.0000000  1.2552000  3
    236    248    254    255     1  0.0000000  0.6508444  3
    236    248    254    256     1  0.0000000  0.6508444  3
    237    236    232    239     1  0.0000000  1.2552000  3
    237    236    248    254     1  0.0000000  0.6508444  3
    237    236    248    249     1  0.0000000  0.6508444  3
    237    236    248    250     1  0.0000000  0.6508444  3
    238    236    232    239     1  0.0000000  1.2552000  3
    238    236    248    254     1  0.0000000  0.6508444  3
    238    236    248    249     1  0.0000000  0.6508444  3
    238    236    248    250     1  0.0000000  0.6508444  3
    239    242    251    252     1  0.0000000  0.6508444  3
    239    242    251    253     1  0.0000000  0.6508444  3
    240    239    242    251     1  0.0000000  0.6508444  3
    240    239    242    243     1  0.0000000  0.6508444  3
    240    239    242    244     1  0.0000000  0.6508444  3
    241    239    242    251     1  0.0000000  0.6508444  3
    241    239    242    243     1  0.0000000  0.6508444  3
    241    239    242    244     1  0.0000000  0.6508444  3
    243    242    251    260     1  0.0000000  1.0460000  1
    243    242    251    260     1  0.0000000  0.0000000  3
    243    242    251    252     1  0.0000000  0.6508444  3
    243    242    251    253     1  0.0000000  0.6508444  3
    244    242    251    260     1  0.0000000  1.0460000  1
    244    242    251    260     1  0.0000000  0.0000000  3
    244    242    251    252     1  0.0000000  0.6508444  3
    244    242    251    253     1  0.0000000  0.6508444  3
    246    245    257    579     1  0.0000000  1.0460000  1
    246    245    257    579     1  0.0000000  0.0000000  3
    246    245    257    258     1  0.0000000  0.6508444  3
    246    245    257    259     1  0.0000000  0.6508444  3
    247    245    257    579     1  0.0000000  1.0460000  1
    247    245    257    579     1  0.0000000  0.0000000  3
    247    245    257    258     1  0.0000000  0.6508444  3
    247    245    257    259     1  0.0000000  0.6508444  3
    249    248    254    550     1  0.0000000  1.0460000  1
    249    248    254    550     1  0.0000000  0.0000000  3
    249    248    254    255     1  0.0000000  0.6508444  3
    249    248    254    256     1  0.0000000  0.6508444  3
    250    248    254    550     1  0.0000000  1.0460000  1
    250    248    254    550     1  0.0000000  0.0000000  3
    250    248    254    255     1  0.0000000  0.6508444  3
    250    248    254    256     1  0.0000000  0.6508444  3
    254    550    541    542     1  0.0000000  1.6038667  3
    254    550    541    543     1  0.0000000  1.6038667  3
    255    254    550    541     1  0.0000000  1.6038667  3
    256    254    550    541     1  0.0000000  1.6038667  3
    257    579    570    571     1  0.0000000  1.6038667  3
    257    579    570    572     1  0.0000000  1.6038667  3
    258    257    579    570     1  0.0000000  1.6038667  3
    259    257    579    570     1  0.0000000  1.6038667  3
    261    262    274    275     1  0.0000000  0.6508444  3
    261    262    274    276     1  0.0000000  0.6508444  3
    261    265    277    278     1  0.0000000  0.6508444  3
    261    265    277    279     1  0.0000000  0.6508444  3
    261    268    271    272     1  0.0000000  0.6508444  3
    261    268    271    273     1  0.0000000  0.6508444  3
    262    261    265    266     1  0.0000000  1.2552000  3
    262    261    265    267     1  0.0000000  1.2552000  3
    262    261    268    269     1  0.0000000  1.2552000  3
    262    261    268    270     1  0.0000000  1.2552000  3
    262    274    286    287     1  0.0000000  0.6508444  3
    262    274    286    288     1  0.0000000  0.6508444  3
    263    262    261    265     1  0.0000000  1.2552000  3
    263    262    261    268     1  0.0000000  1.2552000  3
    263    262    274    286     1  0.0000000  0.6508444  3
    263    262    274    275     1  0.0000000  0.6508444  3
    263    262    274    276     1  0.0000000  0.6508444  3
    264    262    261    265     1  0.0000000  1.2552000  3
    264    262    261    268     1  0.0000000  1.2552000  3
    264    262    274    286     1  0.0000000  0.6508444  3
    264    262    274    275     1  0.0000000  0.6508444  3
    264    262    274    276     1  0.0000000  0.6508444  3
    265    261    268    269     1  0.0000000  1.2552000  3
    265    261    268    270     1  0.0000000  1.2552000  3
    265    277    283    284     1  0.0000000  0.6508444  3
    265    277    283    285     1  0.0000000  0.6508444  3
    266    265    261    268     1  0.0000000  1.2552000  3
    266    265    277    283     1  0.0000000  0.6508444  3
    266    265    277    278     1  0.0000000  0.6508444  3
    266    265    277    279     1  0.0000000  0.6508444  3
    267    265    261    268     1  0.0000000  1.2552000  3
    267    265    277    283     1  0.0000000  0.6508444  3
    267    265    277    278     1  0.0000000  0.6508444  3
    267    265    277    279     1  0.0000000  0.6508444  3
    268    271    280    281     1  0.0000000  0.6508444  3
    268    271    280    282     1  0.0000000  0.6508444  3
    269    268    271    280     1  0.0000000  0.6508444  3
    269    268    271    272     1  0.0000000  0.6508444  3
    269    268    271    273     1  0.0000000  0.6508444  3
    270    268    271    280     1  0.0000000  0.6508444  3
    270    268    271    272     1  0.0000000  0.6508444  3
    270    268    271    273     1  0.0000000  0.6508444  3
    272    271    280    289     1  0.0000000  1.0460000  1
    272    271    280    289     1  0.0000000  0.0000000  3
    272    271    280    281     1  0.0000000  0.6508444  3
    272    271    280    282     1  0.0000000  0.6508444  3
    273    271    280    289     1  0.0000000  1.0460000  1
    273    271    280    289     1  0.0000000  0.0000000  3
    273    271    280    281     1  0.0000000  0.6508444  3
    273    271    280    282     1  0.0000000  0.6508444  3
    275    274    286    637     1  0.0000000  1.0460000  1
    275    274    286    637     1  0.0000000  0.0000000  3
    275    274    286    287     1  0.0000000  0.6508444  3
    275    274    286    288     1  0.0000000  0.6508444  3
    276    274    286    637     1  0.0000000  1.0460000  1
    276    274    286    637     1  0.0000000  0.0000000  3
    276    274    286    287     1  0.0000000  0.6508444  3
    276    274    286    288     1  0.0000000  0.6508444  3
    278    277    283    608     1  0.0000000  1.0460000  1
    278    277    283    608     1  0.0000000  0.0000000  3
    278    277    283    284     1  0.0000000  0.6508444  3
    278    277    283    285     1  0.0000000  0.6508444  3
    279    277    283    608     1  0.0000000  1.0460000  1
    279    277    283    608     1  0.0000000  0.0000000  3
    279    277    283    284     1  0.0000000  0.6508444  3
    279    277    283    285     1  0.0000000  0.6508444  3
    283    608    599    600     1  0.0000000  1.6038667  3
    283    608    599    601     1  0.0000000  1.6038667  3
    284    283    608    599     1  0.0000000  1.6038667  3
    285    283    608    599     1  0.0000000  1.6038667  3
    286    637    628    629     1  0.0000000  1.6038667  3
    286    637    628    630     1  0.0000000  1.6038667  3
    287    286    637    628     1  0.0000000  1.6038667  3
    288    286    637    628     1  0.0000000  1.6038667  3
    290    291    303    304     1  0.0000000  0.6508444  3
    290    291    303    305     1  0.0000000  0.6508444  3
    290    294    306    307     1  0.0000000  0.6508444  3
    290    294    306    308     1  0.0000000  0.6508444  3
    290    297    300    301     1  0.0000000  0.6508444  3
    290    297    300    302     1  0.0000000  0.6508444  3
    291    290    294    295     1  0.0000000  1.2552000  3
    291    290    294    296     1  0.0000000  1.2552000  3
    291    290    297    298     1  0.0000000  1.2552000  3
    291    290    297    299     1  0.0000000  1.2552000  3
    291    303    315    316     1  0.0000000  0.6508444  3
    291    303    315    317     1  0.0000000  0.6508444  3
    292    291    290    294     1  0.0000000  1.2552000  3
    292    291    290    297     1  0.0000000  1.2552000  3
    292    291    303    315     1  0.0000000  0.6508444  3
    292    291    303    304     1  0.0000000  0.6508444  3
    292    291    303    305     1  0.0000000  0.6508444  3
    293    291    290    294     1  0.0000000  1.2552000  3
    293    291    290    297     1  0.0000000  1.2552000  3
    293    291    303    315     1  0.0000000  0.6508444  3
    293    291    303    304     1  0.0000000  0.6508444  3
    293    291    303    305     1  0.0000000  0.6508444  3
    294    290    297    298     1  0.0000000  1.2552000  3
    294    290    297    299     1  0.0000000  1.2552000  3
    294    306    312    313     1  0.0000000  0.6508444  3
    294    306    312    314     1  0.0000000  0.6508444  3
    295    294    290    297     1  0.0000000  1.2552000  3
    295    294    306    312     1  0.0000000  0.6508444  3
    295    294    306    307     1  0.0000000  0.6508444  3
    295    294    306    308     1  0.0000000  0.6508444  3
    296    294    290    297     1  0.0000000  1.2552000  3
    296    294    306    312     1  0.0000000  0.6508444  3
    296    294    306    307     1  0.0000000  0.6508444  3
    296    294    306    308     1  0.0000000  0.6508444  3
    297    300    309    310     1  0.0000000  0.6508444  3
    297    300    309    311     1  0.0000000  0.6508444  3
    298    297    300    309     1  0.0000000  0.6508444  3
    298    297    300    301     1  0.0000000  0.6508444  3
    298    297    300    302     1  0.0000000  0.6508444  3
    299    297    300    309     1  0.0000000  0.6508444  3
    299    297    300    301     1  0.0000000  0.6508444  3
    299    297    300    302     1  0.0000000  0.6508444  3
    301    300    309    318     1  0.0000000  1.0460000  1
    301    300    309    318     1  0.0000000  0.0000000  3
    301    300    309    310     1  0.0000000  0.6508444  3
    301    300    309    311     1  0.0000000  0.6508444  3
    302    300    309    318     1  0.0000000  1.0460000  1
    302    300    309    318     1  0.0000000  0.0000000  3
    302    300    309    310     1  0.0000000  0.6508444  3
    302    300    309    311     1  0.0000000  0.6508444  3
    304    303    315    695     1  0.0000000  1.0460000  1
    304    303    315    695     1  0.0000000  0.0000000  3
    304    303    315    316     1  0.0000000  0.6508444  3
    304    303    315    317     1  0.0000000  0.6508444  3
    305    303    315    695     1  0.0000000  1.0460000  1
    305    303    315    695     1  0.0000000  0.0000000  3
    305    303    315    316     1  0.0000000  0.6508444  3
    305    303    315    317     1  0.0000000  0.6508444  3
    307    306    312    666     1  0.0000000  1.0460000  1
    307    306    312    666     1  0.0000000  0.0000000  3
    307    306    312    313     1  0.0000000  0.6508444  3
    307    306    312    314     1  0.0000000  0.6508444  3
    308    306    312    666     1  0.0000000  1.0460000  1
    308    306    312    666     1  0.0000000  0.0000000  3
    308    306    312    313     1  0.0000000  0.6508444  3
    308    306    312    314     1  0.0000000  0.6508444  3
    312    666    657    658     1  0.0000000  1.6038667  3
    312    666    657    659     1  0.0000000  1.6038667  3
    313    312    666    657     1  0.0000000  1.6038667  3
    314    312    666    657     1  0.0000000  1.6038667  3
    315    695    686    687     1  0.0000000  1.6038667  3
    315    695    686    688     1  0.0000000  1.6038667  3
    316    315    695    686     1  0.0000000  1.6038667  3
    317    315    695    686     1  0.0000000  1.6038667  3
    319    320    332    333     1  0.0000000  0.6508444  3
    319    320    332    334     1  0.0000000  0.6508444  3
    319    323    335    336     1  0.0000000  0.6508444  3
    319    323    335    337     1  0.0000000  0.6508444  3
    319    326    329    330     1  0.0000000  0.6508444  3
    319    326    329    331     1  0.0000000  0.6508444  3
    320    319    323    324     1  0.0000000  1.2552000  3
    320    319    323    325     1  0.0000000  1.2552000  3
    320    319    326    327     1  0.0000000  1.2552000  3
    320    319    326    328     1  0.0000000  1.2552000  3
    320    332    344    345     1  0.0000000  0.6508444  3
    320    332    344    346     1  0.0000000  0.6508444  3
    321    320    319    323     1  0.0000000  1.2552000  3
    321    320    319    326     1  0.0000000  1.2552000  3
    321    320    332    344     1  0.0000000  0.6508444  3
    321    320    332    333     1  0.0000000  0.6508444  3
    321    320    332    334     1  0.0000000  0.6508444  3
    322    320    319    323     1  0.0000000  1.2552000  3
    322    320    319    326     1  0.0000000  1.2552000  3
    322    320    332    344     1  0.0000000  0.6508444  3
    322    320    332    333     1  0.0000000  0.6508444  3
    322    320    332    334     1  0.0000000  0.6508444  3
    323    319    326    327     1  0.0000000  1.2552000  3
    323    319    326    328     1  0.0000000  1.2552000  3
    323    335    341    342     1  0.0000000  0.6508444  3
    323    335    341    343     1  0.0000000  0.6508444  3
    324    323    319    326     1  0.0000000  1.2552000  3
    324    323    335    341     1  0.0000000  0.6508444  3
    324    323    335    336     1  0.0000000  0.6508444  3
    324    323    335    337     1  0.0000000  0.6508444  3
    325    323    319    326     1  0.0000000  1.2552000  3
    325    323    335    341     1  0.0000000  0.6508444  3
    325    323    335    336     1  0.0000000  0.6508444  3
    325    323    335    337     1  0.0000000  0.6508444  3
    326    329    338    339     1  0.0000000  0.6508444  3
    326    329    338    340     1  0.0000000  0.6508444  3
    327    326    329    338     1  0.0000000  0.6508444  3
    327    326    329    330     1  0.0000000  0.6508444  3
    327    326    329    331     1  0.0000000  0.6508444  3
    328    326    329    338     1  0.0000000  0.6508444  3
    328    326    329    330     1  0.0000000  0.6508444  3
    328    326    329    331     1  0.0000000  0.6508444  3
    330    329    338    347     1  0.0000000  1.0460000  1
    330    329    338    347     1  0.0000000  0.0000000  3
    330    329    338    339     1  0.0000000  0.6508444  3
    330    329    338    340     1  0.0000000  0.6508444  3
    331    329    338    347     1  0.0000000  1.0460000  1
    331    329    338    347     1  0.0000000  0.0000000  3
    331    329    338    339     1  0.0000000  0.6508444  3
    331    329    338    340     1  0.0000000  0.6508444  3
    333    332    344    753     1  0.0000000  1.0460000  1
    333    332    344    753     1  0.0000000  0.0000000  3
    333    332    344    345     1  0.0000000  0.6508444  3
    333    332    344    346     1  0.0000000  0.6508444  3
    334    332    344    753     1  0.0000000  1.0460000  1
    334    332    344    753     1  0.0000000  0.0000000  3
    334    332    344    345     1  0.0000000  0.6508444  3
    334    332    344    346     1  0.0000000  0.6508444  3
    336    335    341    724     1  0.0000000  1.0460000  1
    336    335    341    724     1  0.0000000  0.0000000  3
    336    335    341    342     1  0.0000000  0.6508444  3
    336    335    341    343     1  0.0000000  0.6508444  3
    337    335    341    724     1  0.0000000  1.0460000  1
    337    335    341    724     1  0.0000000  0.0000000  3
    337    335    341    342     1  0.0000000  0.6508444  3
    337    335    341    343     1  0.0000000  0.6508444  3
    341    724    715    716     1  0.0000000  1.6038667  3
    341    724    715    717     1  0.0000000  1.6038667  3
    342    341    724    715     1  0.0000000  1.6038667  3
    343    341    724    715     1  0.0000000  1.6038667  3
    344    753    744    745     1  0.0000000  1.6038667  3
    344    753    744    746     1  0.0000000  1.6038667  3
    345    344    753    744     1  0.0000000  1.6038667  3
    346    344    753    744     1  0.0000000  1.6038667  3
    348    349    361    362     1  0.0000000  0.6508444  3
    348    349    361    363     1  0.0000000  0.6508444  3
    348    352    364    365     1  0.0000000  0.6508444  3
    348    352    364    366     1  0.0000000  0.6508444  3
    348    355    358    359     1  0.0000000  0.6508444  3
    348    355    358    360     1  0.0000000  0.6508444  3
    349    348    352    353     1  0.0000000  1.2552000  3
    349    348    352    354     1  0.0000000  1.2552000  3
    349    348    355    356     1  0.0000000  1.2552000  3
    349    348    355    357     1  0.0000000  1.2552000  3
    349    361    373    374     1  0.0000000  0.6508444  3
    349    361    373    375     1  0.0000000  0.6508444  3
    350    349    348    352     1  0.0000000  1.2552000  3
    350    349    348    355     1  0.0000000  1.2552000  3
    350    349    361    373     1  0.0000000  0.6508444  3
    350    349    361    362     1  0.0000000  0.6508444  3
    350    349    361    363     1  0.0000000  0.6508444  3
    351    349    348    352     1  0.0000000  1.2552000  3
    351    349    348    355     1  0.0000000  1.2552000  3
    351    349    361    373     1  0.0000000  0.6508444  3
    351    349    361    362     1  0.0000000  0.6508444  3
    351    349    361    363     1  0.0000000  0.6508444  3
    352    348    355    356     1  0.0000000  1.2552000  3
    352    348    355    357     1  0.0000000  1.2552000  3
    352    364    370    371     1  0.0000000  0.6508444  3
    352    364    370    372     1  0.0000000  0.6508444  3
    353    352    348    355     1  0.0000000  1.2552000  3
    353    352    364    370     1  0.0000000  0.6508444  3
    353    352    364    365     1  0.0000000  0.6508444  3
    353    352    364    366     1  0.0000000  0.6508444  3
    354    352    348    355     1  0.0000000  1.2552000  3
    354    352    364    370     1  0.0000000  0.6508444  3
    354    352    364    365     1  0.0000000  0.6508444  3
    354    352    364    366     1  0.0000000  0.6508444  3
    355    358    367    368     1  0.0000000  0.6508444  3
    355    358    367    369     1  0.0000000  0.6508444  3
    356    355    358    367     1  0.0000000  0.6508444  3
    356    355    358    359     1  0.0000000  0.6508444  3
    356    355    358    360     1  0.0000000  0.6508444  3
    357    355    358    367     1  0.0000000  0.6508444  3
    357    355    358    359     1  0.0000000  0.6508444  3
    357    355    358    360     1  0.0000000  0.6508444  3
    359    358    367    376     1  0.0000000  1.0460000  1
    359    358    367    376     1  0.0000000  0.0000000  3
    359    358    367    368     1  0.0000000  0.6508444  3
    359    358    367    369     1  0.0000000  0.6508444  3
    360    358    367    376     1  0.0000000  1.0460000  1
    360    358    367    376     1  0.0000000  0.0000000  3
    360    358    367    368     1  0.0000000  0.6508444  3
    360    358    367    369     1  0.0000000  0.6508444  3
    362    361    373    811     1  0.0000000  1.0460000  1
    362    361    373    811     1  0.0000000  0.0000000  3
    362    361    373    374     1  0.0000000  0.6508444  3
    362    361    373    375     1  0.0000000  0.6508444  3
    363    361    373    811     1  0.0000000  1.0460000  1
    363    361    373    811     1  0.0000000  0.0000000  3
    363    361    373    374     1  0.0000000  0.6508444  3
    363    361    373    375     1  0.0000000  0.6508444  3
    365    364    370    782     1  0.0000000  1.0460000  1
    365    364    370    782     1  0.0000000  0.0000000  3
    365    364    370    371     1  0.0000000  0.6508444  3
    365    364    370    372     1  0.0000000  0.6508444  3
    366    364    370    782     1  0.0000000  1.0460000  1
    366    364    370    782     1  0.0000000  0.0000000  3
    366    364    370    371     1  0.0000000  0.6508444  3
    366    364    370    372     1  0.0000000  0.6508444  3
    370    782    773    774     1  0.0000000  1.6038667  3
    370    782    773    775     1  0.0000000  1.6038667  3
    371    370    782    773     1  0.0000000  1.6038667  3
    372    370    782    773     1  0.0000000  1.6038667  3
    373    811    802    803     1  0.0000000  1.6038667  3
    373    811    802    804     1  0.0000000  1.6038667  3
    374    373    811    802     1  0.0000000  1.6038667  3
    375    373    811    802     1  0.0000000  1.6038667  3
    377    378    390    391     1  0.0000000  0.6508444  3
    377    378    390    392     1  0.0000000  0.6508444  3
    377    381    393    394     1  0.0000000  0.6508444  3
    377    381    393    395     1  0.0000000  0.6508444  3
    377    384    387    388     1  0.0000000  0.6508444  3
    377    384    387    389     1  0.0000000  0.6508444  3
    378    377    381    382     1  0.0000000  1.2552000  3
    378    377    381    383     1  0.0000000  1.2552000  3
    378    377    384    385     1  0.0000000  1.2552000  3
    378    377    384    386     1  0.0000000  1.2552000  3
    378    390    402    403     1  0.0000000  0.6508444  3
    378    390    402    404     1  0.0000000  0.6508444  3
    379    378    377    381     1  0.0000000  1.2552000  3
    379    378    377    384     1  0.0000000  1.2552000  3
    379    378    390    402     1  0.0000000  0.6508444  3
    379    378    390    391     1  0.0000000  0.6508444  3
    379    378    390    392     1  0.0000000  0.6508444  3
    380    378    377    381     1  0.0000000  1.2552000  3
    380    378    377    384     1  0.0000000  1.2552000  3
    380    378    390    402     1  0.0000000  0.6508444  3
    380    378    390    391     1  0.0000000  0.6508444  3
    380    378    390    392     1  0.0000000  0.6508444  3
    381    377    384    385     1  0.0000000  1.2552000  3
    381    377    384    386     1  0.0000000  1.2552000  3
    381    393    399    400     1  0.0000000  0.6508444  3
    381    393    399    401     1  0.0000000  0.6508444  3
    382    381    377    384     1  0.0000000  1.2552000  3
    382    381    393    399     1  0.0000000  0.6508444  3
    382    381    393    394     1  0.0000000  0.6508444  3
    382    381    393    395     1  0.0000000  0.6508444  3
    383    381    377    384     1  0.0000000  1.2552000  3
    383    381    393    399     1  0.0000000  0.6508444  3
    383    381    393    394     1  0.0000000  0.6508444  3
    383    381    393    395     1  0.0000000  0.6508444  3
    384    387    396    397     1  0.0000000  0.6508444  3
    384    387    396    398     1  0.0000000  0.6508444  3
    385    384    387    396     1  0.0000000  0.6508444  3
    385    384    387    388     1  0.0000000  0.6508444  3
    385    384    387    389     1  0.0000000  0.6508444  3
    386    384    387    396     1  0.0000000  0.6508444  3
    386    384    387    388     1  0.0000000  0.6508444  3
    386    384    387    389     1  0.0000000  0.6508444  3
    388    387    396    405     1  0.0000000  1.0460000  1
    388    387    396    405     1  0.0000000  0.0000000  3
    388    387    396    397     1  0.0000000  0.6508444  3
    388    387    396    398     1  0.0000000  0.6508444  3
    389    387    396    405     1  0.0000000  1.0460000  1
    389    387    396    405     1  0.0000000  0.0000000  3
    389    387    396    397     1  0.0000000  0.6508444  3
    389    387    396    398     1  0.0000000  0.6508444  3
    391    390    402    869     1  0.0000000  1.0460000  1
    391    390    402    869     1  0.0000000  0.0000000  3
    391    390    402    403     1  0.0000000  0.6508444  3
    391    390    402    404     1  0.0000000  0.6508444  3
    392    390    402    869     1  0.0000000  1.0460000  1
    392    390    402    869     1  0.0000000  0.0000000  3
    392    390    402    403     1  0.0000000  0.6508444  3
    392    390    402    404     1  0.0000000  0.6508444  3
    394    393    399    840     1  0.0000000  1.0460000  1
    394    393    399    840     1  0.0000000  0.0000000  3
    394    393    399    400     1  0.0000000  0.6508444  3
    394    393    399    401     1  0.0000000  0.6508444  3
    395    393    399    840     1  0.0000000  1.0460000  1
    395    393    399    840     1  0.0000000  0.0000000  3
    395    393    399    400     1  0.0000000  0.6508444  3
    395    393    399    401     1  0.0000000  0.6508444  3
    399    840    831    832     1  0.0000000  1.6038667  3
    399    840    831    833     1  0.0000000  1.6038667  3
    400    399    840    831     1  0.0000000  1.6038667  3
    401    399    840    831     1  0.0000000  1.6038667  3
    402    869    860    861     1  0.0000000  1.6038667  3
    402    869    860    862     1  0.0000000  1.6038667  3
    403    402    869    860     1  0.0000000  1.6038667  3
    404    402    869    860     1  0.0000000  1.6038667  3
    406    407    419    420     1  0.0000000  0.6508444  3
    406    407    419    421     1  0.0000000  0.6508444  3
    406    410    422    423     1  0.0000000  0.6508444  3
    406    410    422    424     1  0.0000000  0.6508444  3
    406    413    416    417     1  0.0000000  0.6508444  3
    406    413    416    418     1  0.0000000  0.6508444  3
    407    406    410    411     1  0.0000000  1.2552000  3
    407    406    410    412     1  0.0000000  1.2552000  3
    407    406    413    414     1  0.0000000  1.2552000  3
    407    406    413    415     1  0.0000000  1.2552000  3
    407    419    431    432     1  0.0000000  0.6508444  3
    407    419    431    433     1  0.0000000  0.6508444  3
    408    407    406    410     1  0.0000000  1.2552000  3
    408    407    406    413     1  0.0000000  1.2552000  3
    408    407    419    431     1  0.0000000  0.6508444  3
    408    407    419    420     1  0.0000000  0.6508444  3
    408    407    419    421     1  0.0000000  0.6508444  3
    409    407    406    410     1  0.0000000  1.2552000  3
    409    407    406    413     1  0.0000000  1.2552000  3
    409    407    419    431     1  0.0000000  0.6508444  3
    409    407    419    420     1  0.0000000  0.6508444  3
    409    407    419    421     1  0.0000000  0.6508444  3
    410    406    413    414     1  0.0000000  1.2552000  3
    410    406    413    415     1  0.0000000  1.2552000  3
    410    422    428    429     1  0.0000000  0.6508444  3
    410    422    428    430     1  0.0000000  0.6508444  3
    411    410    406    413     1  0.0000000  1.2552000  3
    411    410    422    428     1  0.0000000  0.6508444  3
    411    410    422    423     1  0.0000000  0.6508444  3
    411    410    422    424     1  0.0000000  0.6508444  3
    412    410    406    413     1  0.0000000  1.2552000  3
    412    410    422    428     1  0.0000000  0.6508444  3
    412    410    422    423     1  0.0000000  0.6508444  3
    412    410    422    424     1  0.0000000  0.6508444  3
    413    416    425    426     1  0.0000000  0.6508444  3
    413    416    425    427     1  0.0000000  0.6508444  3
    414    413    416    425     1  0.0000000  0.6508444  3
    414    413    416    417     1  0.0000000  0.6508444  3
    414    413    416    418     1  0.0000000  0.6508444  3
    415    413    416    425     1  0.0000000  0.6508444  3
    415    413    416    417     1  0.0000000  0.6508444  3
    415    413    416    418     1  0.0000000  0.6508444  3
    417    416    425    434     1  0.0000000  1.0460000  1
    417    416    425    434     1  0.0000000  0.0000000  3
    417    416    425    426     1  0.0000000  0.6508444  3
    417    416    425    427     1  0.0000000  0.6508444  3
    418    416    425    434     1  0.0000000  1.0460000  1
    418    416    425    434     1  0.0000000  0.0000000  3
    418    416    425    426     1  0.0000000  0.6508444  3
    418    416    425    427     1  0.0000000  0.6508444  3
    420    419    431    927     1  0.0000000  1.0460000  1
    420    419    431    927     1  0.0000000  0.0000000  3
    420    419    431    432     1  0.0000000  0.6508444  3
    420    419    431    433     1  0.0000000  0.6508444  3
    421    419    431    927     1  0.0000000  1.0460000  1
    421    419    431    927     1  0.0000000  0.0000000  3
    421    419    431    432     1  0.0000000  0.6508444  3
    421    419    431    433     1  0.0000000  0.6508444  3
    423    422    428    898     1  0.0000000  1.0460000  1
    423    422    428    898     1  0.0000000  0.0000000  3
    423    422    428    429     1  0.0000000  0.6508444  3
    423    422    428    430     1  0.0000000  0.6508444  3
    424    422    428    898     1  0.0000000  1.0460000  1
    424    422    428    898     1  0.0000000  0.0000000  3
    424    422    428    429     1  0.0000000  0.6508444  3
    424    422    428    430     1  0.0000000  0.6508444  3
    428    898    889    890     1  0.0000000  1.6038667  3
    428    898    889    891     1  0.0000000  1.6038667  3
    429    428    898    889     1  0.0000000  1.6038667  3
    430    428    898    889     1  0.0000000  1.6038667  3
    431    927    918    919     1  0.0000000  1.6038667  3
    431    927    918    920     1  0.0000000  1.6038667  3
    432    431    927    918     1  0.0000000  1.6038667  3
    433    431    927    918     1  0.0000000  1.6038667  3
    435    436    448    449     1  0.0000000  0.6508444  3
    435    436    448    450     1  0.0000000  0.6508444  3
    435    439    451    452     1  0.0000000  0.6508444  3
    435    439    451    453     1  0.0000000  0.6508444  3
    435    442    445    446     1  0.0000000  0.6508444  3
    435    442    445    447     1  0.0000000  0.6508444  3
    436    435    439    440     1  0.0000000  1.2552000  3
    436    435    439    441     1  0.0000000  1.2552000  3
    436    435    442    443     1  0.0000000  1.2552000  3
    436    435    442    444     1  0.0000000  1.2552000  3
    436    448    460    461     1  0.0000000  0.6508444  3
    436    448    460    462     1  0.0000000  0.6508444  3
    437    436    435    439     1  0.0000000  1.2552000  3
    437    436    435    442     1  0.0000000  1.2552000  3
    437    436    448    460     1  0.0000000  0.6508444  3
    437    436    448    449     1  0.0000000  0.6508444  3
    437    436    448    450     1  0.0000000  0.6508444  3
    438    436    435    439     1  0.0000000  1.2552000  3
    438    436    435    442     1  0.0000000  1.2552000  3
    438    436    448    460     1  0.0000000  0.6508444  3
    438    436    448    449     1  0.0000000  0.6508444  3
    438    436    448    450     1  0.0000000  0.6508444  3
    439    435    442    443     1  0.0000000  1.2552000  3
    439    435    442    444     1  0.0000000  1.2552000  3
    439    451    457    458     1  0.0000000  0.6508444  3
    439    451    457    459     1  0.0000000  0.6508444  3
    440    439    435    442     1  0.0000000  1.2552000  3
    440    439    451    457     1  0.0000000  0.6508444  3
    440    439    451    452     1  0.0000000  0.6508444  3
    440    439    451    453     1  0.0000000  0.6508444  3
    441    439    435    442     1  0.0000000  1.2552000  3
    441    439    451    457     1  0.0000000  0.6508444  3
    441    439    451    452     1  0.0000000  0.6508444  3
    441    439    451    453     1  0.0000000  0.6508444  3
    442    445    454    455     1  0.0000000  0.6508444  3
    442    445    454    456     1  0.0000000  0.6508444  3
    443    442    445    454     1  0.0000000  0.6508444  3
    443    442    445    446     1  0.0000000  0.6508444  3
    443    442    445    447     1  0.0000000  0.6508444  3
    444    442    445    454     1  0.0000000  0.6508444  3
    444    442    445    446     1  0.0000000  0.6508444  3
    444    442    445    447     1  0.0000000  0.6508444  3
    446    445    454    463     1  0.0000000  1.0460000  1
    446    445    454    463     1  0.0000000  0.0000000  3
    446    445    454    455     1  0.0000000  0.6508444  3
    446    445    454    456     1  0.0000000  0.6508444  3
    447    445    454    463     1  0.0000000  1.0460000  1
    447    445    454    463     1  0.0000000  0.0000000  3
    447    445    454    455     1  0.0000000  0.6508444  3
    447    445    454    456     1  0.0000000  0.6508444  3
    449    448    460    985     1  0.0000000  1.0460000  1
    449    448    460    985     1  0.0000000  0.0000000  3
    449    448    460    461     1  0.0000000  0.6508444  3
    449    448    460    462     1  0.0000000  0.6508444  3
    450    448    460    985     1  0.0000000  1.0460000  1
    450    448    460    985     1  0.0000000  0.0000000  3
    450    448    460    461     1  0.0000000  0.6508444  3
    450    448    460    462     1  0.0000000  0.6508444  3
    452    451    457    956     1  0.0000000  1.0460000  1
    452    451    457    956     1  0.0000000  0.0000000  3
    452    451    457    458     1  0.0000000  0.6508444  3
    452    451    457    459     1  0.0000000  0.6508444  3
    453    451    457    956     1  0.0000000  1.0460000  1
    453    451    457    956     1  0.0000000  0.0000000  3
    453    451    457    458     1  0.0000000  0.6508444  3
    453    451    457    459     1  0.0000000  0.6508444  3
    457    956    947    948     1  0.0000000  1.6038667  3
    457    956    947    949     1  0.0000000  1.6038667  3
    458    457    956    947     1  0.0000000  1.6038667  3
    459    457    956    947     1  0.0000000  1.6038667  3
    460    985    976    977     1  0.0000000  1.6038667  3
    460    985    976    978     1  0.0000000  1.6038667  3
    461    460    985    976     1  0.0000000  1.6038667  3
    462    460    985    976     1  0.0000000  1.6038667  3
    464    465    477    478     1  0.0000000  0.6508444  3
    464    465    477    479     1  0.0000000  0.6508444  3
    464    468    480    481     1  0.0000000  0.6508444  3
    464    468    480    482     1  0.0000000  0.6508444  3
    464    471    474    475     1  0.0000000  0.6508444  3
    464    471    474    476     1  0.0000000  0.6508444  3
    465    464    468    469     1  0.0000000  1.2552000  3
    465    464    468    470     1  0.0000000  1.2552000  3
    465    464    471    472     1  0.0000000  1.2552000  3
    465    464    471    473     1  0.0000000  1.2552000  3
    465    477    489    490     1  0.0000000  0.6508444  3
    465    477    489    491     1  0.0000000  0.6508444  3
    466    465    464    468     1  0.0000000  1.2552000  3
    466    465    464    471     1  0.0000000  1.2552000  3
    466    465    477    489     1  0.0000000  0.6508444  3
    466    465    477    478     1  0.0000000  0.6508444  3
    466    465    477    479     1  0.0000000  0.6508444  3
    467    465    464    468     1  0.0000000  1.2552000  3
    467    465    464    471     1  0.0000000  1.2552000  3
    467    465    477    489     1  0.0000000  0.6508444  3
    467    465    477    478     1  0.0000000  0.6508444  3
    467    465    477    479     1  0.0000000  0.6508444  3
    468    464    471    472     1  0.0000000  1.2552000  3
    468    464    471    473     1  0.0000000  1.2552000  3
    468    480    486    487     1  0.0000000  0.6508444  3
    468    480    486    488     1  0.0000000  0.6508444  3
    469    468    464    471     1  0.0000000  1.2552000  3
    469    468    480    486     1  0.0000000  0.6508444  3
    469    468    480    481     1  0.0000000  0.6508444  3
    469    468    480    482     1  0.0000000  0.6508444  3
    470    468    464    471     1  0.0000000  1.2552000  3
    470    468    480    486     1  0.0000000  0.6508444  3
    470    468    480    481     1  0.0000000  0.6508444  3
    470    468    480    482     1  0.0000000  0.6508444  3
    471    474    483    484     1  0.0000000  0.6508444  3
    471    474    483    485     1  0.0000000  0.6508444  3
    472    471    474    483     1  0.0000000  0.6508444  3
    472    471    474    475     1  0.0000000  0.6508444  3
    472    471    474    476     1  0.0000000  0.6508444  3
    473    471    474    483     1  0.0000000  0.6508444  3
    473    471    474    475     1  0.0000000  0.6508444  3
    473    471    474    476     1  0.0000000  0.6508444  3
    475    474    483    492     1  0.0000000  1.0460000  1
    475    474    483    492     1  0.0000000  0.0000000  3
    475    474    483    484     1  0.0000000  0.6508444  3
    475    474    483    485     1  0.0000000  0.6508444  3
    476    474    483    492     1  0.0000000  1.0460000  1
    476    474    483    492     1  0.0000000  0.0000000  3
    476    474    483    484     1  0.0000000  0.6508444  3
    476    474    483    485     1  0.0000000  0.6508444  3
    478    477    489   1043     1  0.0000000  1.0460000  1
    478    477    489   1043     1  0.0000000  0.0000000  3
    478    477    489    490     1  0.0000000  0.6508444  3
    478    477    489    491     1  0.0000000  0.6508444  3
    479    477    489   1043     1  0.0000000  1.0460000  1
    479    477    489   1043     1  0.0000000  0.0000000  3
    479    477    489    490     1  0.0000000  0.6508444  3
    479    477    489    491     1  0.0000000  0.6508444  3
    481    480    486   1014     1  0.0000000  1.0460000  1
    481    480    486   1014     1  0.0000000  0.0000000  3
    481    480    486    487     1  0.0000000  0.6508444  3
    481    480    486    488     1  0.0000000  0.6508444  3
    482    480    486   1014     1  0.0000000  1.0460000  1
    482    480    486   1014     1  0.0000000  0.0000000  3
    482    480    486    487     1  0.0000000  0.6508444  3
    482    480    486    488     1  0.0000000  0.6508444  3
    486   1014   1005   1006     1  0.0000000  1.6038667  3
    486   1014   1005   1007     1  0.0000000  1.6038667  3
    487    486   1014   1005     1  0.0000000  1.6038667  3
    488    486   1014   1005     1  0.0000000  1.6038667  3
    489   1043   1034   1035     1  0.0000000  1.6038667  3
    489   1043   1034   1036     1  0.0000000  1.6038667  3
    490    489   1043   1034     1  0.0000000  1.6038667  3
    491    489   1043   1034     1  0.0000000  1.6038667  3
    493    494    506    507     1  0.0000000  0.6508444  3
    493    494    506    508     1  0.0000000  0.6508444  3
    493    497    509    510     1  0.0000000  0.6508444  3
    493    497    509    511     1  0.0000000  0.6508444  3
    493    500    503    504     1  0.0000000  0.6508444  3
    493    500    503    505     1  0.0000000  0.6508444  3
    494    493    497    498     1  0.0000000  1.2552000  3
    494    493    497    499     1  0.0000000  1.2552000  3
    494    493    500    501     1  0.0000000  1.2552000  3
    494    493    500    502     1  0.0000000  1.2552000  3
    494    506    518    519     1  0.0000000  0.6508444  3
    494    506    518    520     1  0.0000000  0.6508444  3
    495    494    493    497     1  0.0000000  1.2552000  3
    495    494    493    500     1  0.0000000  1.2552000  3
    495    494    506    518     1  0.0000000  0.6508444  3
    495    494    506    507     1  0.0000000  0.6508444  3
    495    494    506    508     1  0.0000000  0.6508444  3
    496    494    493    497     1  0.0000000  1.2552000  3
    496    494    493    500     1  0.0000000  1.2552000  3
    496    494    506    518     1  0.0000000  0.6508444  3
    496    494    506    507     1  0.0000000  0.6508444  3
    496    494    506    508     1  0.0000000  0.6508444  3
    497    493    500    501     1  0.0000000  1.2552000  3
    497    493    500    502     1  0.0000000  1.2552000  3
    497    509    515    516     1  0.0000000  0.6508444  3
    497    509    515    517     1  0.0000000  0.6508444  3
    498    497    493    500     1  0.0000000  1.2552000  3
    498    497    509    515     1  0.0000000  0.6508444  3
    498    497    509    510     1  0.0000000  0.6508444  3
    498    497    509    511     1  0.0000000  0.6508444  3
    499    497    493    500     1  0.0000000  1.2552000  3
    499    497    509    515     1  0.0000000  0.6508444  3
    499    497    509    510     1  0.0000000  0.6508444  3
    499    497    509    511     1  0.0000000  0.6508444  3
    500    503    512    513     1  0.0000000  0.6508444  3
    500    503    512    514     1  0.0000000  0.6508444  3
    501    500    503    512     1  0.0000000  0.6508444  3
    501    500    503    504     1  0.0000000  0.6508444  3
    501    500    503    505     1  0.0000000  0.6508444  3
    502    500    503    512     1  0.0000000  0.6508444  3
    502    500    503    504     1  0.0000000  0.6508444  3
    502    500    503    505     1  0.0000000  0.6508444  3
    504    503    512    521     1  0.0000000  1.0460000  1
    504    503    512    521     1  0.0000000  0.0000000  3
    504    503    512    513     1  0.0000000  0.6508444  3
    504    503    512    514     1  0.0000000  0.6508444  3
    505    503    512    521     1  0.0000000  1.0460000  1
    505    503    512    521     1  0.0000000  0.0000000  3
    505    503    512    513     1  0.0000000  0.6508444  3
    505    503    512    514     1  0.0000000  0.6508444  3
    507    506    518   1101     1  0.0000000  1.0460000  1
    507    506    518   1101     1  0.0000000  0.0000000  3
    507    506    518    519     1  0.0000000  0.6508444  3
    507    506    518    520     1  0.0000000  0.6508444  3
    508    506    518   1101     1  0.0000000  1.0460000  1
    508    506    518   1101     1  0.0000000  0.0000000  3
    508    506    518    519     1  0.0000000  0.6508444  3
    508    506    518    520     1  0.0000000  0.6508444  3
    510    509    515   1072     1  0.0000000  1.0460000  1
    510    509    515   1072     1  0.0000000  0.0000000  3
    510    509    515    516     1  0.0000000  0.6508444  3
    510    509    515    517     1  0.0000000  0.6508444  3
    511    509    515   1072     1  0.0000000  1.0460000  1
    511    509    515   1072     1  0.0000000  0.0000000  3
    511    509    515    516     1  0.0000000  0.6508444  3
    511    509    515    517     1  0.0000000  0.6508444  3
    515   1072   1063   1064     1  0.0000000  1.6038667  3
    515   1072   1063   1065     1  0.0000000  1.6038667  3
    516    515   1072   1063     1  0.0000000  1.6038667  3
    517    515   1072   1063     1  0.0000000  1.6038667  3
    518   1101   1092   1093     1  0.0000000  1.6038667  3
    518   1101   1092   1094     1  0.0000000  1.6038667  3
    519    518   1101   1092     1  0.0000000  1.6038667  3
    520    518   1101   1092     1  0.0000000  1.6038667  3
    522    523    535    536     1  0.0000000  0.6508444  3
    522    523    535    537     1  0.0000000  0.6508444  3
    522    526    538    539     1  0.0000000  0.6508444  3
    522    526    538    540     1  0.0000000  0.6508444  3
    522    529    532    533     1  0.0000000  0.6508444  3
    522    529    532    534     1  0.0000000  0.6508444  3
    523    522    526    527     1  0.0000000  1.2552000  3
    523    522    526    528     1  0.0000000  1.2552000  3
    523    522    529    530     1  0.0000000  1.2552000  3
    523    522    529    531     1  0.0000000  1.2552000  3
    523    535    547    548     1  0.0000000  0.6508444  3
    523    535    547    549     1  0.0000000  0.6508444  3
    524    523    522    526     1  0.0000000  1.2552000  3
    524    523    522    529     1  0.0000000  1.2552000  3
    524    523    535    547     1  0.0000000  0.6508444  3
    524    523    535    536     1  0.0000000  0.6508444  3
    524    523    535    537     1  0.0000000  0.6508444  3
    525    523    522    526     1  0.0000000  1.2552000  3
    525    523    522    529     1  0.0000000  1.2552000  3
    525    523    535    547     1  0.0000000  0.6508444  3
    525    523    535    536     1  0.0000000  0.6508444  3
    525    523    535    537     1  0.0000000  0.6508444  3
    526    522    529    530     1  0.0000000  1.2552000  3
    526    522    529    531     1  0.0000000  1.2552000  3
    526    538    544    545     1  0.0000000  0.6508444  3
    526    538    544    546     1  0.0000000  0.6508444  3
    527    526    522    529     1  0.0000000  1.2552000  3
    527    526    538    544     1  0.0000000  0.6508444  3
    527    526    538    539     1  0.0000000  0.6508444  3
    527    526    538    540     1  0.0000000  0.6508444  3
    528    526    522    529     1  0.0000000  1.2552000  3
    528    526    538    544     1  0.0000000  0.6508444  3
    528    526    538    539     1  0.0000000  0.6508444  3
    528    526    538    540     1  0.0000000  0.6508444  3
    529    532    541    542     1  0.0000000  0.6508444  3
    529    532    541    543     1  0.0000000  0.6508444  3
    530    529    532    541     1  0.0000000  0.6508444  3
    530    529    532    533     1  0.0000000  0.6508444  3
    530    529    532    534     1  0.0000000  0.6508444  3
    531    529    532    541     1  0.0000000  0.6508444  3
    531    529    532    533     1  0.0000000  0.6508444  3
    531    529    532    534     1  0.0000000  0.6508444  3
    533    532    541    550     1  0.0000000  1.0460000  1
    533    532    541    550     1  0.0000000  0.0000000  3
    533    532    541    542     1  0.0000000  0.6508444  3
    533    532    541    543     1  0.0000000  0.6508444  3
    534    532    541    550     1  0.0000000  1.0460000  1
    534    532    541    550     1  0.0000000  0.0000000  3
    534    532    541    542     1  0.0000000  0.6508444  3
    534    532    541    543     1  0.0000000  0.6508444  3
    536    535    547   1159     1  0.0000000  1.0460000  1
    536    535    547   1159     1  0.0000000  0.0000000  3
    536    535    547    548     1  0.0000000  0.6508444  3
    536    535    547    549     1  0.0000000  0.6508444  3
    537    535    547   1159     1  0.0000000  1.0460000  1
    537    535    547   1159     1  0.0000000  0.0000000  3
    537    535    547    548     1  0.0000000  0.6508444  3
    537    535    547    549     1  0.0000000  0.6508444  3
    539    538    544   1130     1  0.0000000  1.0460000  1
    539    538    544   1130     1  0.0000000  0.0000000  3
    539    538    544    545     1  0.0000000  0.6508444  3
    539    538    544    546     1  0.0000000  0.6508444  3
    540    538    544   1130     1  0.0000000  1.0460000  1
    540    538    544   1130     1  0.0000000  0.0000000  3
    540    538    544    545     1  0.0000000  0.6508444  3
    540    538    544    546     1  0.0000000  0.6508444  3
    544   1130   1121   1122     1  0.0000000  1.6038667  3
    544   1130   1121   1123     1  0.0000000  1.6038667  3
    545    544   1130   1121     1  0.0000000  1.6038667  3
    546    544   1130   1121     1  0.0000000  1.6038667  3
    547   1159   1150   1151     1  0.0000000  1.6038667  3
    547   1159   1150   1152     1  0.0000000  1.6038667  3
    548    547   1159   1150     1  0.0000000  1.6038667  3
    549    547   1159   1150     1  0.0000000  1.6038667  3
    551    552    564    565     1  0.0000000  0.6508444  3
    551    552    564    566     1  0.0000000  0.6508444  3
    551    555    567    568     1  0.0000000  0.6508444  3
    551    555    567    569     1  0.0000000  0.6508444  3
    551    558    561    562     1  0.0000000  0.6508444  3
    551    558    561    563     1  0.0000000  0.6508444  3
    552    551    555    556     1  0.0000000  1.2552000  3
    552    551    555    557     1  0.0000000  1.2552000  3
    552    551    558    559     1  0.0000000  1.2552000  3
    552    551    558    560     1  0.0000000  1.2552000  3
    552    564    576    577     1  0.0000000  0.6508444  3
    552    564    576    578     1  0.0000000  0.6508444  3
    553    552    551    555     1  0.0000000  1.2552000  3
    553    552    551    558     1  0.0000000  1.2552000  3
    553    552    564    576     1  0.0000000  0.6508444  3
    553    552    564    565     1  0.0000000  0.6508444  3
    553    552    564    566     1  0.0000000  0.6508444  3
    554    552    551    555     1  0.0000000  1.2552000  3
    554    552    551    558     1  0.0000000  1.2552000  3
    554    552    564    576     1  0.0000000  0.6508444  3
    554    552    564    565     1  0.0000000  0.6508444  3
    554    552    564    566     1  0.0000000  0.6508444  3
    555    551    558    559     1  0.0000000  1.2552000  3
    555    551    558    560     1  0.0000000  1.2552000  3
    555    567    573    574     1  0.0000000  0.6508444  3
    555    567    573    575     1  0.0000000  0.6508444  3
    556    555    551    558     1  0.0000000  1.2552000  3
    556    555    567    573     1  0.0000000  0.6508444  3
    556    555    567    568     1  0.0000000  0.6508444  3
    556    555    567    569     1  0.0000000  0.6508444  3
    557    555    551    558     1  0.0000000  1.2552000  3
    557    555    567    573     1  0.0000000  0.6508444  3
    557    555    567    568     1  0.0000000  0.6508444  3
    557    555    567    569     1  0.0000000  0.6508444  3
    558    561    570    571     1  0.0000000  0.6508444  3
    558    561    570    572     1  0.0000000  0.6508444  3
    559    558    561    570     1  0.0000000  0.6508444  3
    559    558    561    562     1  0.0000000  0.6508444  3
    559    558    561    563     1  0.0000000  0.6508444  3
    560    558    561    570     1  0.0000000  0.6508444  3
    560    558    561    562     1  0.0000000  0.6508444  3
    560    558    561    563     1  0.0000000  0.6508444  3
    562    561    570    579     1  0.0000000  1.0460000  1
    562    561    570    579     1  0.0000000  0.0000000  3
    562    561    570    571     1  0.0000000  0.6508444  3
    562    561    570    572     1  0.0000000  0.6508444  3
    563    561    570    579     1  0.0000000  1.0460000  1
    563    561    570    579     1  0.0000000  0.0000000  3
    563    561    570    571     1  0.0000000  0.6508444  3
    563    561    570    572     1  0.0000000  0.6508444  3
    565    564    576   1217     1  0.0000000  1.0460000  1
    565    564    576   1217     1  0.0000000  0.0000000  3
    565    564    576    577     1  0.0000000  0.6508444  3
    565    564    576    578     1  0.0000000  0.6508444  3
    566    564    576   1217     1  0.0000000  1.0460000  1
    566    564    576   1217     1  0.0000000  0.0000000  3
    566    564    576    577     1  0.0000000  0.6508444  3
    566    564    576    578     1  0.0000000  0.6508444  3
    568    567    573   1188     1  0.0000000  1.0460000  1
    568    567    573   1188     1  0.0000000  0.0000000  3
    568    567    573    574     1  0.0000000  0.6508444  3
    568    567    573    575     1  0.0000000  0.6508444  3
    569    567    573   1188     1  0.0000000  1.0460000  1
    569    567    573   1188     1  0.0000000  0.0000000  3
    569    567    573    574     1  0.0000000  0.6508444  3
    569    567    573    575     1  0.0000000  0.6508444  3
    573   1188   1179   1180     1  0.0000000  1.6038667  3
    573   1188   1179   1181     1  0.0000000  1.6038667  3
    574    573   1188   1179     1  0.0000000  1.6038667  3
    575    573   1188   1179     1  0.0000000  1.6038667  3
    576   1217   1208   1209     1  0.0000000  1.6038667  3
    576   1217   1208   1210     1  0.0000000  1.6038667  3
    577    576   1217   1208     1  0.0000000  1.6038667  3
    578    576   1217   1208     1  0.0000000  1.6038667  3
    580    581    593    594     1  0.0000000  0.6508444  3
    580    581    593    595     1  0.0000000  0.6508444  3
    580    584    596    597     1  0.0000000  0.6508444  3
    580    584    596    598     1  0.0000000  0.6508444  3
    580    587    590    591     1  0.0000000  0.6508444  3
    580    587    590    592     1  0.0000000  0.6508444  3
    581    580    584    585     1  0.0000000  1.2552000  3
    581    580    584    586     1  0.0000000  1.2552000  3
    581    580    587    588     1  0.0000000  1.2552000  3
    581    580    587    589     1  0.0000000  1.2552000  3
    581    593    605    606     1  0.0000000  0.6508444  3
    581    593    605    607     1  0.0000000  0.6508444  3
    582    581    580    584     1  0.0000000  1.2552000  3
    582    581    580    587     1  0.0000000  1.2552000  3
    582    581    593    605     1  0.0000000  0.6508444  3
    582    581    593    594     1  0.0000000  0.6508444  3
    582    581    593    595     1  0.0000000  0.6508444  3
    583    581    580    584     1  0.0000000  1.2552000  3
    583    581    580    587     1  0.0000000  1.2552000  3
    583    581    593    605     1  0.0000000  0.6508444  3
    583    581    593    594     1  0.0000000  0.6508444  3
    583    581    593    595     1  0.0000000  0.6508444  3
    584    580    587    588     1  0.0000000  1.2552000  3
    584    580    587    589     1  0.0000000  1.2552000  3
    584    596    602    603     1  0.0000000  0.6508444  3
    584    596    602    604     1  0.0000000  0.6508444  3
    585    584    580    587     1  0.0000000  1.2552000  3
    585    584    596    602     1  0.0000000  0.6508444  3
    585    584    596    597     1  0.0000000  0.6508444  3
    585    584    596    598     1  0.0000000  0.6508444  3
    586    584    580    587     1  0.0000000  1.2552000  3
    586    584    596    602     1  0.0000000  0.6508444  3
    586    584    596    597     1  0.0000000  0.6508444  3
    586    584    596    598     1  0.0000000  0.6508444  3
    587    590    599    600     1  0.0000000  0.6508444  3
    587    590    599    601     1  0.0000000  0.6508444  3
    588    587    590    599     1  0.0000000  0.6508444  3
    588    587    590    591     1  0.0000000  0.6508444  3
    588    587    590    592     1  0.0000000  0.6508444  3
    589    587    590    599     1  0.0000000  0.6508444  3
    589    587    590    591     1  0.0000000  0.6508444  3
    589    587    590    592     1  0.0000000  0.6508444  3
    591    590    599    608     1  0.0000000  1.0460000  1
    591    590    599    608     1  0.0000000  0.0000000  3
    591    590    599    600     1  0.0000000  0.6508444  3
    591    590    599    601     1  0.0000000  0.6508444  3
    592    590    599    608     1  0.0000000  1.0460000  1
    592    590    599    608     1  0.0000000  0.0000000  3
    592    590    599    600     1  0.0000000  0.6508444  3
    592    590    599    601     1  0.0000000  0.6508444  3
    594    593    605   1275     1  0.0000000  1.0460000  1
    594    593    605   1275     1  0.0000000  0.0000000  3
    594    593    605    606     1  0.0000000  0.6508444  3
    594    593    605    607     1  0.0000000  0.6508444  3
    595    593    605   1275     1  0.0000000  1.0460000  1
    595    593    605   1275     1  0.0000000  0.0000000  3
    595    593    605    606     1  0.0000000  0.6508444  3
    595    593    605    607     1  0.0000000  0.6508444  3
    597    596    602   1246     1  0.0000000  1.0460000  1
    597    596    602   1246     1  0.0000000  0.0000000  3
    597    596    602    603     1  0.0000000  0.6508444  3
    597    596    602    604     1  0.0000000  0.6508444  3
    598    596    602   1246     1  0.0000000  1.0460000  1
    598    596    602   1246     1  0.0000000  0.0000000  3
    598    596    602    603     1  0.0000000  0.6508444  3
    598    596    602    604     1  0.0000000  0.6508444  3
    602   1246   1237   1238     1  0.0000000  1.6038667  3
    602   1246   1237   1239     1  0.0000000  1.6038667  3
    603    602   1246   1237     1  0.0000000  1.6038667  3
    604    602   1246   1237     1  0.0000000  1.6038667  3
    605   1275   1266   1267     1  0.0000000  1.6038667  3
    605   1275   1266   1268     1  0.0000000  1.6038667  3
    606    605   1275   1266     1  0.0000000  1.6038667  3
    607    605   1275   1266     1  0.0000000  1.6038667  3
    609    610    622    623     1  0.0000000  0.6508444  3
    609    610    622    624     1  0.0000000  0.6508444  3
    609    613    625    626     1  0.0000000  0.6508444  3
    609    613    625    627     1  0.0000000  0.6508444  3
    609    616    619    620     1  0.0000000  0.6508444  3
    609    616    619    621     1  0.0000000  0.6508444  3
    610    609    613    614     1  0.0000000  1.2552000  3
    610    609    613    615     1  0.0000000  1.2552000  3
    610    609    616    617     1  0.0000000  1.2552000  3
    610    609    616    618     1  0.0000000  1.2552000  3
    610    622    634    635     1  0.0000000  0.6508444  3
    610    622    634    636     1  0.0000000  0.6508444  3
    611    610    609    613     1  0.0000000  1.2552000  3
    611    610    609    616     1  0.0000000  1.2552000  3
    611    610    622    634     1  0.0000000  0.6508444  3
    611    610    622    623     1  0.0000000  0.6508444  3
    611    610    622    624     1  0.0000000  0.6508444  3
    612    610    609    613     1  0.0000000  1.2552000  3
    612    610    609    616     1  0.0000000  1.2552000  3
    612    610    622    634     1  0.0000000  0.6508444  3
    612    610    622    623     1  0.0000000  0.6508444  3
    612    610    622    624     1  0.0000000  0.6508444  3
    613    609    616    617     1  0.0000000  1.2552000  3
    613    609    616    618     1  0.0000000  1.2552000  3
    613    625    631    632     1  0.0000000  0.6508444  3
    613    625    631    633     1  0.0000000  0.6508444  3
    614    613    609    616     1  0.0000000  1.2552000  3
    614    613    625    631     1  0.0000000  0.6508444  3
    614    613    625    626     1  0.0000000  0.6508444  3
    614    613    625    627     1  0.0000000  0.6508444  3
    615    613    609    616     1  0.0000000  1.2552000  3
    615    613    625    631     1  0.0000000  0.6508444  3
    615    613    625    626     1  0.0000000  0.6508444  3
    615    613    625    627     1  0.0000000  0.6508444  3
    616    619    628    629     1  0.0000000  0.6508444  3
    616    619    628    630     1  0.0000000  0.6508444  3
    617    616    619    628     1  0.0000000  0.6508444  3
    617    616    619    620     1  0.0000000  0.6508444  3
    617    616    619    621     1  0.0000000  0.6508444  3
    618    616    619    628     1  0.0000000  0.6508444  3
    618    616    619    620     1  0.0000000  0.6508444  3
    618    616    619    621     1  0.0000000  0.6508444  3
    620    619    628    637     1  0.0000000  1.0460000  1
    620    619    628    637     1  0.0000000  0.0000000  3
    620    619    628    629     1  0.0000000  0.6508444  3
    620    619    628    630     1  0.0000000  0.6508444  3
    621    619    628    637     1  0.0000000  1.0460000  1
    621    619    628    637     1  0.0000000  0.0000000  3
    621    619    628    629     1  0.0000000  0.6508444  3
    621    619    628    630     1  0.0000000  0.6508444  3
    623    622    634   1333     1  0.0000000  1.0460000  1
    623    622    634   1333     1  0.0000000  0.0000000  3
    623    622    634    635     1  0.0000000  0.6508444  3
    623    622    634    636     1  0.0000000  0.6508444  3
    624    622    634   1333     1  0.0000000  1.0460000  1
    624    622    634   1333     1  0.0000000  0.0000000  3
    624    622    634    635     1  0.0000000  0.6508444  3
    624    622    634    636     1  0.0000000  0.6508444  3
    626    625    631   1304     1  0.0000000  1.0460000  1
    626    625    631   1304     1  0.0000000  0.0000000  3
    626    625    631    632     1  0.0000000  0.6508444  3
    626    625    631    633     1  0.0000000  0.6508444  3
    627    625    631   1304     1  0.0000000  1.0460000  1
    627    625    631   1304     1  0.0000000  0.0000000  3
    627    625    631    632     1  0.0000000  0.6508444  3
    627    625    631    633     1  0.0000000  0.6508444  3
    631   1304   1295   1296     1  0.0000000  1.6038667  3
    631   1304   1295   1297     1  0.0000000  1.6038667  3
    632    631   1304   1295     1  0.0000000  1.6038667  3
    633    631   1304   1295     1  0.0000000  1.6038667  3
    634   1333   1324   1325     1  0.0000000  1.6038667  3
    634   1333   1324   1326     1  0.0000000  1.6038667  3
    635    634   1333   1324     1  0.0000000  1.6038667  3
    636    634   1333   1324     1  0.0000000  1.6038667  3
    638    639    651    652     1  0.0000000  0.6508444  3
    638    639    651    653     1  0.0000000  0.6508444  3
    638    642    654    655     1  0.0000000  0.6508444  3
    638    642    654    656     1  0.0000000  0.6508444  3
    638    645    648    649     1  0.0000000  0.6508444  3
    638    645    648    650     1  0.0000000  0.6508444  3
    639    638    642    643     1  0.0000000  1.2552000  3
    639    638    642    644     1  0.0000000  1.2552000  3
    639    638    645    646     1  0.0000000  1.2552000  3
    639    638    645    647     1  0.0000000  1.2552000  3
    639    651    663    664     1  0.0000000  0.6508444  3
    639    651    663    665     1  0.0000000  0.6508444  3
    640    639    638    642     1  0.0000000  1.2552000  3
    640    639    638    645     1  0.0000000  1.2552000  3
    640    639    651    663     1  0.0000000  0.6508444  3
    640    639    651    652     1  0.0000000  0.6508444  3
    640    639    651    653     1  0.0000000  0.6508444  3
    641    639    638    642     1  0.0000000  1.2552000  3
    641    639    638    645     1  0.0000000  1.2552000  3
    641    639    651    663     1  0.0000000  0.6508444  3
    641    639    651    652     1  0.0000000  0.6508444  3
    641    639    651    653     1  0.0000000  0.6508444  3
    642    638    645    646     1  0.0000000  1.2552000  3
    642    638    645    647     1  0.0000000  1.2552000  3
    642    654    660    661     1  0.0000000  0.6508444  3
    642    654    660    662     1  0.0000000  0.6508444  3
    643    642    638    645     1  0.0000000  1.2552000  3
    643    642    654    660     1  0.0000000  0.6508444  3
    643    642    654    655     1  0.0000000  0.6508444  3
    643    642    654    656     1  0.0000000  0.6508444  3
    644    642    638    645     1  0.0000000  1.2552000  3
    644    642    654    660     1  0.0000000  0.6508444  3
    644    642    654    655     1  0.0000000  0.6508444  3
    644    642    654    656     1  0.0000000  0.6508444  3
    645    648    657    658     1  0.0000000  0.6508444  3
    645    648    657    659     1  0.0000000  0.6508444  3
    646    645    648    657     1  0.0000000  0.6508444  3
    646    645    648    649     1  0.0000000  0.6508444  3
    646    645    648    650     1  0.0000000  0.6508444  3
    647    645    648    657     1  0.0000000  0.6508444  3
    647    645    648    649     1  0.0000000  0.6508444  3
    647    645    648    650     1  0.0000000  0.6508444  3
    649    648    657    666     1  0.0000000  1.0460000  1
    649    648    657    666     1  0.0000000  0.0000000  3
    649    648    657    658     1  0.0000000  0.6508444  3
    649    648    657    659     1  0.0000000  0.6508444  3
    650    648    657    666     1  0.0000000  1.0460000  1
    650    648    657    666     1  0.0000000  0.0000000  3
    650    648    657    658     1  0.0000000  0.6508444  3
    650    648    657    659     1  0.0000000  0.6508444  3
    652    651    663   1391     1  0.0000000  1.0460000  1
    652    651    663   1391     1  0.0000000  0.0000000  3
    652    651    663    664     1  0.0000000  0.6508444  3
    652    651    663    665     1  0.0000000  0.6508444  3
    653    651    663   1391     1  0.0000000  1.0460000  1
    653    651    663   1391     1  0.0000000  0.0000000  3
    653    651    663    664     1  0.0000000  0.6508444  3
    653    651    663    665     1  0.0000000  0.6508444  3
    655    654    660   1362     1  0.0000000  1.0460000  1
    655    654    660   1362     1  0.0000000  0.0000000  3
    655    654    660    661     1  0.0000000  0.6508444  3
    655    654    660    662     1  0.0000000  0.6508444  3
    656    654    660   1362     1  0.0000000  1.0460000  1
    656    654    660   1362     1  0.0000000  0.0000000  3
    656    654    660    661     1  0.0000000  0.6508444  3
    656    654    660    662     1  0.0000000  0.6508444  3
    660   1362   1353   1354     1  0.0000000  1.6038667  3
    660   1362   1353   1355     1  0.0000000  1.6038667  3
    661    660   1362   1353     1  0.0000000  1.6038667  3
    662    660   1362   1353     1  0.0000000  1.6038667  3
    663   1391   1382   1383     1  0.0000000  1.6038667  3
    663   1391   1382   1384     1  0.0000000  1.6038667  3
    664    663   1391   1382     1  0.0000000  1.6038667  3
    665    663   1391   1382     1  0.0000000  1.6038667  3
    667    668    680    681     1  0.0000000  0.6508444  3
    667    668    680    682     1  0.0000000  0.6508444  3
    667    671    683    684     1  0.0000000  0.6508444  3
    667    671    683    685     1  0.0000000  0.6508444  3
    667    674    677    678     1  0.0000000  0.6508444  3
    667    674    677    679     1  0.0000000  0.6508444  3
    668    667    671    672     1  0.0000000  1.2552000  3
    668    667    671    673     1  0.0000000  1.2552000  3
    668    667    674    675     1  0.0000000  1.2552000  3
    668    667    674    676     1  0.0000000  1.2552000  3
    668    680    692    693     1  0.0000000  0.6508444  3
    668    680    692    694     1  0.0000000  0.6508444  3
    669    668    667    671     1  0.0000000  1.2552000  3
    669    668    667    674     1  0.0000000  1.2552000  3
    669    668    680    692     1  0.0000000  0.6508444  3
    669    668    680    681     1  0.0000000  0.6508444  3
    669    668    680    682     1  0.0000000  0.6508444  3
    670    668    667    671     1  0.0000000  1.2552000  3
    670    668    667    674     1  0.0000000  1.2552000  3
    670    668    680    692     1  0.0000000  0.6508444  3
    670    668    680    681     1  0.0000000  0.6508444  3
    670    668    680    682     1  0.0000000  0.6508444  3
    671    667    674    675     1  0.0000000  1.2552000  3
    671    667    674    676     1  0.0000000  1.2552000  3
    671    683    689    690     1  0.0000000  0.6508444  3
    671    683    689    691     1  0.0000000  0.6508444  3
    672    671    667    674     1  0.0000000  1.2552000  3
    672    671    683    689     1  0.0000000  0.6508444  3
    672    671    683    684     1  0.0000000  0.6508444  3
    672    671    683    685     1  0.0000000  0.6508444  3
    673    671    667    674     1  0.0000000  1.2552000  3
    673    671    683    689     1  0.0000000  0.6508444  3
    673    671    683    684     1  0.0000000  0.6508444  3
    673    671    683    685     1  0.0000000  0.6508444  3
    674    677    686    687     1  0.0000000  0.6508444  3
    674    677    686    688     1  0.0000000  0.6508444  3
    675    674    677    686     1  0.0000000  0.6508444  3
    675    674    677    678     1  0.0000000  0.6508444  3
    675    674    677    679     1  0.0000000  0.6508444  3
    676    674    677    686     1  0.0000000  0.6508444  3
    676    674    677    678     1  0.0000000  0.6508444  3
    676    674    677    679     1  0.0000000  0.6508444  3
    678    677    686    695     1  0.0000000  1.0460000  1
    678    677    686    695     1  0.0000000  0.0000000  3
    678    677    686    687     1  0.0000000  0.6508444  3
    678    677    686    688     1  0.0000000  0.6508444  3
    679    677    686    695     1  0.0000000  1.0460000  1
    679    677    686    695     1  0.0000000  0.0000000  3
    679    677    686    687     1  0.0000000  0.6508444  3
    679    677    686    688     1  0.0000000  0.6508444  3
    681    680    692   1449     1  0.0000000  1.0460000  1
    681    680    692   1449     1  0.0000000  0.0000000  3
    681    680    692    693     1  0.0000000  0.6508444  3
    681    680    692    694     1  0.0000000  0.6508444  3
    682    680    692   1449     1  0.0000000  1.0460000  1
    682    680    692   1449     1  0.0000000  0.0000000  3
    682    680    692    693     1  0.0000000  0.6508444  3
    682    680    692    694     1  0.0000000  0.6508444  3
    684    683    689   1420     1  0.0000000  1.0460000  1
    684    683    689   1420     1  0.0000000  0.0000000  3
    684    683    689    690     1  0.0000000  0.6508444  3
    684    683    689    691     1  0.0000000  0.6508444  3
    685    683    689   1420     1  0.0000000  1.0460000  1
    685    683    689   1420     1  0.0000000  0.0000000  3
    685    683    689    690     1  0.0000000  0.6508444  3
    685    683    689    691     1  0.0000000  0.6508444  3
    689   1420   1411   1412     1  0.0000000  1.6038667  3
    689   1420   1411   1413     1  0.0000000  1.6038667  3
    690    689   1420   1411     1  0.0000000  1.6038667  3
    691    689   1420   1411     1  0.0000000  1.6038667  3
    692   1449   1440   1441     1  0.0000000  1.6038667  3
    692   1449   1440   1442     1  0.0000000  1.6038667  3
    693    692   1449   1440     1  0.0000000  1.6038667  3
    694    692   1449   1440     1  0.0000000  1.6038667  3
    696    697    709    710     1  0.0000000  0.6508444  3
    696    697    709    711     1  0.0000000  0.6508444  3
    696    700    712    713     1  0.0000000  0.6508444  3
    696    700    712    714     1  0.0000000  0.6508444  3
    696    703    706    707     1  0.0000000  0.6508444  3
    696    703    706    708     1  0.0000000  0.6508444  3
    697    696    700    701     1  0.0000000  1.2552000  3
    697    696    700    702     1  0.0000000  1.2552000  3
    697    696    703    704     1  0.0000000  1.2552000  3
    697    696    703    705     1  0.0000000  1.2552000  3
    697    709    721    722     1  0.0000000  0.6508444  3
    697    709    721    723     1  0.0000000  0.6508444  3
    698    697    696    700     1  0.0000000  1.2552000  3
    698    697    696    703     1  0.0000000  1.2552000  3
    698    697    709    721     1  0.0000000  0.6508444  3
    698    697    709    710     1  0.0000000  0.6508444  3
    698    697    709    711     1  0.0000000  0.6508444  3
    699    697    696    700     1  0.0000000  1.2552000  3
    699    697    696    703     1  0.0000000  1.2552000  3
    699    697    709    721     1  0.0000000  0.6508444  3
    699    697    709    710     1  0.0000000  0.6508444  3
    699    697    709    711     1  0.0000000  0.6508444  3
    700    696    703    704     1  0.0000000  1.2552000  3
    700    696    703    705     1  0.0000000  1.2552000  3
    700    712    718    719     1  0.0000000  0.6508444  3
    700    712    718    720     1  0.0000000  0.6508444  3
    701    700    696    703     1  0.0000000  1.2552000  3
    701    700    712    718     1  0.0000000  0.6508444  3
    701    700    712    713     1  0.0000000  0.6508444  3
    701    700    712    714     1  0.0000000  0.6508444  3
    702    700    696    703     1  0.0000000  1.2552000  3
    702    700    712    718     1  0.0000000  0.6508444  3
    702    700    712    713     1  0.0000000  0.6508444  3
    702    700    712    714     1  0.0000000  0.6508444  3
    703    706    715    716     1  0.0000000  0.6508444  3
    703    706    715    717     1  0.0000000  0.6508444  3
    704    703    706    715     1  0.0000000  0.6508444  3
    704    703    706    707     1  0.0000000  0.6508444  3
    704    703    706    708     1  0.0000000  0.6508444  3
    705    703    706    715     1  0.0000000  0.6508444  3
    705    703    706    707     1  0.0000000  0.6508444  3
    705    703    706    708     1  0.0000000  0.6508444  3
    707    706    715    724     1  0.0000000  1.0460000  1
    707    706    715    724     1  0.0000000  0.0000000  3
    707    706    715    716     1  0.0000000  0.6508444  3
    707    706    715    717     1  0.0000000  0.6508444  3
    708    706    715    724     1  0.0000000  1.0460000  1
    708    706    715    724     1  0.0000000  0.0000000  3
    708    706    715    716     1  0.0000000  0.6508444  3
    708    706    715    717     1  0.0000000  0.6508444  3
    710    709    721   1507     1  0.0000000  1.0460000  1
    710    709    721   1507     1  0.0000000  0.0000000  3
    710    709    721    722     1  0.0000000  0.6508444  3
    710    709    721    723     1  0.0000000  0.6508444  3
    711    709    721   1507     1  0.0000000  1.0460000  1
    711    709    721   1507     1  0.0000000  0.0000000  3
    711    709    721    722     1  0.0000000  0.6508444  3
    711    709    721    723     1  0.0000000  0.6508444  3
    713    712    718   1478     1  0.0000000  1.0460000  1
    713    712    718   1478     1  0.0000000  0.0000000  3
    713    712    718    719     1  0.0000000  0.6508444  3
    713    712    718    720     1  0.0000000  0.6508444  3
    714    712    718   1478     1  0.0000000  1.0460000  1
    714    712    718   1478     1  0.0000000  0.0000000  3
    714    712    718    719     1  0.0000000  0.6508444  3
    714    712    718    720     1  0.0000000  0.6508444  3
    718   1478   1469   1470     1  0.0000000  1.6038667  3
    718   1478   1469   1471     1  0.0000000  1.6038667  3
    719    718   1478   1469     1  0.0000000  1.6038667  3
    720    718   1478   1469     1  0.0000000  1.6038667  3
    721   1507   1498   1499     1  0.0000000  1.6038667  3
    721   1507   1498   1500     1  0.0000000  1.6038667  3
    722    721   1507   1498     1  0.0000000  1.6038667  3
    723    721   1507   1498     1  0.0000000  1.6038667  3
    725    726    738    739     1  0.0000000  0.6508444  3
    725    726    738    740     1  0.0000000  0.6508444  3
    725    729    741    742     1  0.0000000  0.6508444  3
    725    729    741    743     1  0.0000000  0.6508444  3
    725    732    735    736     1  0.0000000  0.6508444  3
    725    732    735    737     1  0.0000000  0.6508444  3
    726    725    729    730     1  0.0000000  1.2552000  3
    726    725    729    731     1  0.0000000  1.2552000  3
    726    725    732    733     1  0.0000000  1.2552000  3
    726    725    732    734     1  0.0000000  1.2552000  3
    726    738    750    751     1  0.0000000  0.6508444  3
    726    738    750    752     1  0.0000000  0.6508444  3
    727    726    725    729     1  0.0000000  1.2552000  3
    727    726    725    732     1  0.0000000  1.2552000  3
    727    726    738    750     1  0.0000000  0.6508444  3
    727    726    738    739     1  0.0000000  0.6508444  3
    727    726    738    740     1  0.0000000  0.6508444  3
    728    726    725    729     1  0.0000000  1.2552000  3
    728    726    725    732     1  0.0000000  1.2552000  3
    728    726    738    750     1  0.0000000  0.6508444  3
    728    726    738    739     1  0.0000000  0.6508444  3
    728    726    738    740     1  0.0000000  0.6508444  3
    729    725    732    733     1  0.0000000  1.2552000  3
    729    725    732    734     1  0.0000000  1.2552000  3
    729    741    747    748     1  0.0000000  0.6508444  3
    729    741    747    749     1  0.0000000  0.6508444  3
    730    729    725    732     1  0.0000000  1.2552000  3
    730    729    741    747     1  0.0000000  0.6508444  3
    730    729    741    742     1  0.0000000  0.6508444  3
    730    729    741    743     1  0.0000000  0.6508444  3
    731    729    725    732     1  0.0000000  1.2552000  3
    731    729    741    747     1  0.0000000  0.6508444  3
    731    729    741    742     1  0.0000000  0.6508444  3
    731    729    741    743     1  0.0000000  0.6508444  3
    732    735    744    745     1  0.0000000  0.6508444  3
    732    735    744    746     1  0.0000000  0.6508444  3
    733    732    735    744     1  0.0000000  0.6508444  3
    733    732    735    736     1  0.0000000  0.6508444  3
    733    732    735    737     1  0.0000000  0.6508444  3
    734    732    735    744     1  0.0000000  0.6508444  3
    734    732    735    736     1  0.0000000  0.6508444  3
    734    732    735    737     1  0.0000000  0.6508444  3
    736    735    744    753     1  0.0000000  1.0460000  1
    736    735    744    753     1  0.0000000  0.0000000  3
    736    735    744    745     1  0.0000000  0.6508444  3
    736    735    744    746     1  0.0000000  0.6508444  3
    737    735    744    753     1  0.0000000  1.0460000  1
    737    735    744    753     1  0.0000000  0.0000000  3
    737    735    744    745     1  0.0000000  0.6508444  3
    737    735    744    746     1  0.0000000  0.6508444  3
    739    738    750   1565     1  0.0000000  1.0460000  1
    739    738    750   1565     1  0.0000000  0.0000000  3
    739    738    750    751     1  0.0000000  0.6508444  3
    739    738    750    752     1  0.0000000  0.6508444  3
    740    738    750   1565     1  0.0000000  1.0460000  1
    740    738    750   1565     1  0.0000000  0.0000000  3
    740    738    750    751     1  0.0000000  0.6508444  3
    740    738    750    752     1  0.0000000  0.6508444  3
    742    741    747   1536     1  0.0000000  1.0460000  1
    742    741    747   1536     1  0.0000000  0.0000000  3
    742    741    747    748     1  0.0000000  0.6508444  3
    742    741    747    749     1  0.0000000  0.6508444  3
    743    741    747   1536     1  0.0000000  1.0460000  1
    743    741    747   1536     1  0.0000000  0.0000000  3
    743    741    747    748     1  0.0000000  0.6508444  3
    743    741    747    749     1  0.0000000  0.6508444  3
    747   1536   1527   1528     1  0.0000000  1.6038667  3
    747   1536   1527   1529     1  0.0000000  1.6038667  3
    748    747   1536   1527     1  0.0000000  1.6038667  3
    749    747   1536   1527     1  0.0000000  1.6038667  3
    750   1565   1556   1557     1  0.0000000  1.6038667  3
    750   1565   1556   1558     1  0.0000000  1.6038667  3
    751    750   1565   1556     1  0.0000000  1.6038667  3
    752    750   1565   1556     1  0.0000000  1.6038667  3
    754    755    767    768     1  0.0000000  0.6508444  3
    754    755    767    769     1  0.0000000  0.6508444  3
    754    758    770    771     1  0.0000000  0.6508444  3
    754    758    770    772     1  0.0000000  0.6508444  3
    754    761    764    765     1  0.0000000  0.6508444  3
    754    761    764    766     1  0.0000000  0.6508444  3
    755    754    758    759     1  0.0000000  1.2552000  3
    755    754    758    760     1  0.0000000  1.2552000  3
    755    754    761    762     1  0.0000000  1.2552000  3
    755    754    761    763     1  0.0000000  1.2552000  3
    755    767    779    780     1  0.0000000  0.6508444  3
    755    767    779    781     1  0.0000000  0.6508444  3
    756    755    754    758     1  0.0000000  1.2552000  3
    756    755    754    761     1  0.0000000  1.2552000  3
    756    755    767    779     1  0.0000000  0.6508444  3
    756    755    767    768     1  0.0000000  0.6508444  3
    756    755    767    769     1  0.0000000  0.6508444  3
    757    755    754    758     1  0.0000000  1.2552000  3
    757    755    754    761     1  0.0000000  1.2552000  3
    757    755    767    779     1  0.0000000  0.6508444  3
    757    755    767    768     1  0.0000000  0.6508444  3
    757    755    767    769     1  0.0000000  0.6508444  3
    758    754    761    762     1  0.0000000  1.2552000  3
    758    754    761    763     1  0.0000000  1.2552000  3
    758    770    776    777     1  0.0000000  0.6508444  3
    758    770    776    778     1  0.0000000  0.6508444  3
    759    758    754    761     1  0.0000000  1.2552000  3
    759    758    770    776     1  0.0000000  0.6508444  3
    759    758    770    771     1  0.0000000  0.6508444  3
    759    758    770    772     1  0.0000000  0.6508444  3
    760    758    754    761     1  0.0000000  1.2552000  3
    760    758    770    776     1  0.0000000  0.6508444  3
    760    758    770    771     1  0.0000000  0.6508444  3
    760    758    770    772     1  0.0000000  0.6508444  3
    761    764    773    774     1  0.0000000  0.6508444  3
    761    764    773    775     1  0.0000000  0.6508444  3
    762    761    764    773     1  0.0000000  0.6508444  3
    762    761    764    765     1  0.0000000  0.6508444  3
    762    761    764    766     1  0.0000000  0.6508444  3
    763    761    764    773     1  0.0000000  0.6508444  3
    763    761    764    765     1  0.0000000  0.6508444  3
    763    761    764    766     1  0.0000000  0.6508444  3
    765    764    773    782     1  0.0000000  1.0460000  1
    765    764    773    782     1  0.0000000  0.0000000  3
    765    764    773    774     1  0.0000000  0.6508444  3
    765    764    773    775     1  0.0000000  0.6508444  3
    766    764    773    782     1  0.0000000  1.0460000  1
    766    764    773    782     1  0.0000000  0.0000000  3
    766    764    773    774     1  0.0000000  0.6508444  3
    766    764    773    775     1  0.0000000  0.6508444  3
    768    767    779   1623     1  0.0000000  1.0460000  1
    768    767    779   1623     1  0.0000000  0.0000000  3
    768    767    779    780     1  0.0000000  0.6508444  3
    768    767    779    781     1  0.0000000  0.6508444  3
    769    767    779   1623     1  0.0000000  1.0460000  1
    769    767    779   1623     1  0.0000000  0.0000000  3
    769    767    779    780     1  0.0000000  0.6508444  3
    769    767    779    781     1  0.0000000  0.6508444  3
    771    770    776   1594     1  0.0000000  1.0460000  1
    771    770    776   1594     1  0.0000000  0.0000000  3
    771    770    776    777     1  0.0000000  0.6508444  3
    771    770    776    778     1  0.0000000  0.6508444  3
    772    770    776   1594     1  0.0000000  1.0460000  1
    772    770    776   1594     1  0.0000000  0.0000000  3
    772    770    776    777     1  0.0000000  0.6508444  3
    772    770    776    778     1  0.0000000  0.6508444  3
    776   1594   1585   1586     1  0.0000000  1.6038667  3
    776   1594   1585   1587     1  0.0000000  1.6038667  3
    777    776   1594   1585     1  0.0000000  1.6038667  3
    778    776   1594   1585     1  0.0000000  1.6038667  3
    779   1623   1614   1615     1  0.0000000  1.6038667  3
    779   1623   1614   1616     1  0.0000000  1.6038667  3
    780    779   1623   1614     1  0.0000000  1.6038667  3
    781    779   1623   1614     1  0.0000000  1.6038667  3
    783    784    796    797     1  0.0000000  0.6508444  3
    783    784    796    798     1  0.0000000  0.6508444  3
    783    787    799    800     1  0.0000000  0.6508444  3
    783    787    799    801     1  0.0000000  0.6508444  3
    783    790    793    794     1  0.0000000  0.6508444  3
    783    790    793    795     1  0.0000000  0.6508444  3
    784    783    787    788     1  0.0000000  1.2552000  3
    784    783    787    789     1  0.0000000  1.2552000  3
    784    783    790    791     1  0.0000000  1.2552000  3
    784    783    790    792     1  0.0000000  1.2552000  3
    784    796    808    809     1  0.0000000  0.6508444  3
    784    796    808    810     1  0.0000000  0.6508444  3
    785    784    783    787     1  0.0000000  1.2552000  3
    785    784    783    790     1  0.0000000  1.2552000  3
    785    784    796    808     1  0.0000000  0.6508444  3
    785    784    796    797     1  0.0000000  0.6508444  3
    785    784    796    798     1  0.0000000  0.6508444  3
    786    784    783    787     1  0.0000000  1.2552000  3
    786    784    783    790     1  0.0000000  1.2552000  3
    786    784    796    808     1  0.0000000  0.6508444  3
    786    784    796    797     1  0.0000000  0.6508444  3
    786    784    796    798     1  0.0000000  0.6508444  3
    787    783    790    791     1  0.0000000  1.2552000  3
    787    783    790    792     1  0.0000000  1.2552000  3
    787    799    805    806     1  0.0000000  0.6508444  3
    787    799    805    807     1  0.0000000  0.6508444  3
    788    787    783    790     1  0.0000000  1.2552000  3
    788    787    799    805     1  0.0000000  0.6508444  3
    788    787    799    800     1  0.0000000  0.6508444  3
    788    787    799    801     1  0.0000000  0.6508444  3
    789    787    783    790     1  0.0000000  1.2552000  3
    789    787    799    805     1  0.0000000  0.6508444  3
    789    787    799    800     1  0.0000000  0.6508444  3
    789    787    799    801     1  0.0000000  0.6508444  3
    790    793    802    803     1  0.0000000  0.6508444  3
    790    793    802    804     1  0.0000000  0.6508444  3
    791    790    793    802     1  0.0000000  0.6508444  3
    791    790    793    794     1  0.0000000  0.6508444  3
    791    790    793    795     1  0.0000000  0.6508444  3
    792    790    793    802     1  0.0000000  0.6508444  3
    792    790    793    794     1  0.0000000  0.6508444  3
    792    790    793    795     1  0.0000000  0.6508444  3
    794    793    802    811     1  0.0000000  1.0460000  1
    794    793    802    811     1  0.0000000  0.0000000  3
    794    793    802    803     1  0.0000000  0.6508444  3
    794    793    802    804     1  0.0000000  0.6508444  3
    795    793    802    811     1  0.0000000  1.0460000  1
    795    793    802    811     1  0.0000000  0.0000000  3
    795    793    802    803     1  0.0000000  0.6508444  3
    795    793    802    804     1  0.0000000  0.6508444  3
    797    796    808   1681     1  0.0000000  1.0460000  1
    797    796    808   1681     1  0.0000000  0.0000000  3
    797    796    808    809     1  0.0000000  0.6508444  3
    797    796    808    810     1  0.0000000  0.6508444  3
    798    796    808   1681     1  0.0000000  1.0460000  1
    798    796    808   1681     1  0.0000000  0.0000000  3
    798    796    808    809     1  0.0000000  0.6508444  3
    798    796    808    810     1  0.0000000  0.6508444  3
    800    799    805   1652     1  0.0000000  1.0460000  1
    800    799    805   1652     1  0.0000000  0.0000000  3
    800    799    805    806     1  0.0000000  0.6508444  3
    800    799    805    807     1  0.0000000  0.6508444  3
    801    799    805   1652     1  0.0000000  1.0460000  1
    801    799    805   1652     1  0.0000000  0.0000000  3
    801    799    805    806     1  0.0000000  0.6508444  3
    801    799    805    807     1  0.0000000  0.6508444  3
    805   1652   1643   1644     1  0.0000000  1.6038667  3
    805   1652   1643   1645     1  0.0000000  1.6038667  3
    806    805   1652   1643     1  0.0000000  1.6038667  3
    807    805   1652   1643     1  0.0000000  1.6038667  3
    808   1681   1672   1673     1  0.0000000  1.6038667  3
    808   1681   1672   1674     1  0.0000000  1.6038667  3
    809    808   1681   1672     1  0.0000000  1.6038667  3
    810    808   1681   1672     1  0.0000000  1.6038667  3
    812    813    825    826     1  0.0000000  0.6508444  3
    812    813    825    827     1  0.0000000  0.6508444  3
    812    816    828    829     1  0.0000000  0.6508444  3
    812    816    828    830     1  0.0000000  0.6508444  3
    812    819    822    823     1  0.0000000  0.6508444  3
    812    819    822    824     1  0.0000000  0.6508444  3
    813    812    816    817     1  0.0000000  1.2552000  3
    813    812    816    818     1  0.0000000  1.2552000  3
    813    812    819    820     1  0.0000000  1.2552000  3
    813    812    819    821     1  0.0000000  1.2552000  3
    813    825    837    838     1  0.0000000  0.6508444  3
    813    825    837    839     1  0.0000000  0.6508444  3
    814    813    812    816     1  0.0000000  1.2552000  3
    814    813    812    819     1  0.0000000  1.2552000  3
    814    813    825    837     1  0.0000000  0.6508444  3
    814    813    825    826     1  0.0000000  0.6508444  3
    814    813    825    827     1  0.0000000  0.6508444  3
    815    813    812    816     1  0.0000000  1.2552000  3
    815    813    812    819     1  0.0000000  1.2552000  3
    815    813    825    837     1  0.0000000  0.6508444  3
    815    813    825    826     1  0.0000000  0.6508444  3
    815    813    825    827     1  0.0000000  0.6508444  3
    816    812    819    820     1  0.0000000  1.2552000  3
    816    812    819    821     1  0.0000000  1.2552000  3
    816    828    834    835     1  0.0000000  0.6508444  3
    816    828    834    836     1  0.0000000  0.6508444  3
    817    816    812    819     1  0.0000000  1.2552000  3
    817    816    828    834     1  0.0000000  0.6508444  3
    817    816    828    829     1  0.0000000  0.6508444  3
    817    816    828    830     1  0.0000000  0.6508444  3
    818    816    812    819     1  0.0000000  1.2552000  3
    818    816    828    834     1  0.0000000  0.6508444  3
    818    816    828    829     1  0.0000000  0.6508444  3
    818    816    828    830     1  0.0000000  0.6508444  3
    819    822    831    832     1  0.0000000  0.6508444  3
    819    822    831    833     1  0.0000000  0.6508444  3
    820    819    822    831     1  0.0000000  0.6508444  3
    820    819    822    823     1  0.0000000  0.6508444  3
    820    819    822    824     1  0.0000000  0.6508444  3
    821    819    822    831     1  0.0000000  0.6508444  3
    821    819    822    823     1  0.0000000  0.6508444  3
    821    819    822    824     1  0.0000000  0.6508444  3
    823    822    831    840     1  0.0000000  1.0460000  1
    823    822    831    840     1  0.0000000  0.0000000  3
    823    822    831    832     1  0.0000000  0.6508444  3
    823    822    831    833     1  0.0000000  0.6508444  3
    824    822    831    840     1  0.0000000  1.0460000  1
    824    822    831    840     1  0.0000000  0.0000000  3
    824    822    831    832     1  0.0000000  0.6508444  3
    824    822    831    833     1  0.0000000  0.6508444  3
    826    825    837   1739     1  0.0000000  1.0460000  1
    826    825    837   1739     1  0.0000000  0.0000000  3
    826    825    837    838     1  0.0000000  0.6508444  3
    826    825    837    839     1  0.0000000  0.6508444  3
    827    825    837   1739     1  0.0000000  1.0460000  1
    827    825    837   1739     1  0.0000000  0.0000000  3
    827    825    837    838     1  0.0000000  0.6508444  3
    827    825    837    839     1  0.0000000  0.6508444  3
    829    828    834   1710     1  0.0000000  1.0460000  1
    829    828    834   1710     1  0.0000000  0.0000000  3
    829    828    834    835     1  0.0000000  0.6508444  3
    829    828    834    836     1  0.0000000  0.6508444  3
    830    828    834   1710     1  0.0000000  1.0460000  1
    830    828    834   1710     1  0.0000000  0.0000000  3
    830    828    834    835     1  0.0000000  0.6508444  3
    830    828    834    836     1  0.0000000  0.6508444  3
    834   1710   1701   1702     1  0.0000000  1.6038667  3
    834   1710   1701   1703     1  0.0000000  1.6038667  3
    835    834   1710   1701     1  0.0000000  1.6038667  3
    836    834   1710   1701     1  0.0000000  1.6038667  3
    837   1739   1730   1731     1  0.0000000  1.6038667  3
    837   1739   1730   1732     1  0.0000000  1.6038667  3
    838    837   1739   1730     1  0.0000000  1.6038667  3
    839    837   1739   1730     1  0.0000000  1.6038667  3
    841    842    854    855     1  0.0000000  0.6508444  3
    841    842    854    856     1  0.0000000  0.6508444  3
    841    845    857    858     1  0.0000000  0.6508444  3
    841    845    857    859     1  0.0000000  0.6508444  3
    841    848    851    852     1  0.0000000  0.6508444  3
    841    848    851    853     1  0.0000000  0.6508444  3
    842    841    845    846     1  0.0000000  1.2552000  3
    842    841    845    847     1  0.0000000  1.2552000  3
    842    841    848    849     1  0.0000000  1.2552000  3
    842    841    848    850     1  0.0000000  1.2552000  3
    842    854    866    867     1  0.0000000  0.6508444  3
    842    854    866    868     1  0.0000000  0.6508444  3
    843    842    841    845     1  0.0000000  1.2552000  3
    843    842    841    848     1  0.0000000  1.2552000  3
    843    842    854    866     1  0.0000000  0.6508444  3
    843    842    854    855     1  0.0000000  0.6508444  3
    843    842    854    856     1  0.0000000  0.6508444  3
    844    842    841    845     1  0.0000000  1.2552000  3
    844    842    841    848     1  0.0000000  1.2552000  3
    844    842    854    866     1  0.0000000  0.6508444  3
    844    842    854    855     1  0.0000000  0.6508444  3
    844    842    854    856     1  0.0000000  0.6508444  3
    845    841    848    849     1  0.0000000  1.2552000  3
    845    841    848    850     1  0.0000000  1.2552000  3
    845    857    863    864     1  0.0000000  0.6508444  3
    845    857    863    865     1  0.0000000  0.6508444  3
    846    845    841    848     1  0.0000000  1.2552000  3
    846    845    857    863     1  0.0000000  0.6508444  3
    846    845    857    858     1  0.0000000  0.6508444  3
    846    845    857    859     1  0.0000000  0.6508444  3
    847    845    841    848     1  0.0000000  1.2552000  3
    847    845    857    863     1  0.0000000  0.6508444  3
    847    845    857    858     1  0.0000000  0.6508444  3
    847    845    857    859     1  0.0000000  0.6508444  3
    848    851    860    861     1  0.0000000  0.6508444  3
    848    851    860    862     1  0.0000000  0.6508444  3
    849    848    851    860     1  0.0000000  0.6508444  3
    849    848    851    852     1  0.0000000  0.6508444  3
    849    848    851    853     1  0.0000000  0.6508444  3
    850    848    851    860     1  0.0000000  0.6508444  3
    850    848    851    852     1  0.0000000  0.6508444  3
    850    848    851    853     1  0.0000000  0.6508444  3
    852    851    860    869     1  0.0000000  1.0460000  1
    852    851    860    869     1  0.0000000  0.0000000  3
    852    851    860    861     1  0.0000000  0.6508444  3
    852    851    860    862     1  0.0000000  0.6508444  3
    853    851    860    869     1  0.0000000  1.0460000  1
    853    851    860    869     1  0.0000000  0.0000000  3
    853    851    860    861     1  0.0000000  0.6508444  3
    853    851    860    862     1  0.0000000  0.6508444  3
    855    854    866   1797     1  0.0000000  1.0460000  1
    855    854    866   1797     1  0.0000000  0.0000000  3
    855    854    866    867     1  0.0000000  0.6508444  3
    855    854    866    868     1  0.0000000  0.6508444  3
    856    854    866   1797     1  0.0000000  1.0460000  1
    856    854    866   1797     1  0.0000000  0.0000000  3
    856    854    866    867     1  0.0000000  0.6508444  3
    856    854    866    868     1  0.0000000  0.6508444  3
    858    857    863   1768     1  0.0000000  1.0460000  1
    858    857    863   1768     1  0.0000000  0.0000000  3
    858    857    863    864     1  0.0000000  0.6508444  3
    858    857    863    865     1  0.0000000  0.6508444  3
    859    857    863   1768     1  0.0000000  1.0460000  1
    859    857    863   1768     1  0.0000000  0.0000000  3
    859    857    863    864     1  0.0000000  0.6508444  3
    859    857    863    865     1  0.0000000  0.6508444  3
    863   1768   1759   1760     1  0.0000000  1.6038667  3
    863   1768   1759   1761     1  0.0000000  1.6038667  3
    864    863   1768   1759     1  0.0000000  1.6038667  3
    865    863   1768   1759     1  0.0000000  1.6038667  3
    866   1797   1788   1789     1  0.0000000  1.6038667  3
    866   1797   1788   1790     1  0.0000000  1.6038667  3
    867    866   1797   1788     1  0.0000000  1.6038667  3
    868    866   1797   1788     1  0.0000000  1.6038667  3
    870    871    883    884     1  0.0000000  0.6508444  3
    870    871    883    885     1  0.0000000  0.6508444  3
    870    874    886    887     1  0.0000000  0.6508444  3
    870    874    886    888     1  0.0000000  0.6508444  3
    870    877    880    881     1  0.0000000  0.6508444  3
    870    877    880    882     1  0.0000000  0.6508444  3
    871    870    874    875     1  0.0000000  1.2552000  3
    871    870    874    876     1  0.0000000  1.2552000  3
    871    870    877    878     1  0.0000000  1.2552000  3
    871    870    877    879     1  0.0000000  1.2552000  3
    871    883    895    896     1  0.0000000  0.6508444  3
    871    883    895    897     1  0.0000000  0.6508444  3
    872    871    870    874     1  0.0000000  1.2552000  3
    872    871    870    877     1  0.0000000  1.2552000  3
    872    871    883    895     1  0.0000000  0.6508444  3
    872    871    883    884     1  0.0000000  0.6508444  3
    872    871    883    885     1  0.0000000  0.6508444  3
    873    871    870    874     1  0.0000000  1.2552000  3
    873    871    870    877     1  0.0000000  1.2552000  3
    873    871    883    895     1  0.0000000  0.6508444  3
    873    871    883    884     1  0.0000000  0.6508444  3
    873    871    883    885     1  0.0000000  0.6508444  3
    874    870    877    878     1  0.0000000  1.2552000  3
    874    870    877    879     1  0.0000000  1.2552000  3
    874    886    892    893     1  0.0000000  0.6508444  3
    874    886    892    894     1  0.0000000  0.6508444  3
    875    874    870    877     1  0.0000000  1.2552000  3
    875    874    886    892     1  0.0000000  0.6508444  3
    875    874    886    887     1  0.0000000  0.6508444  3
    875    874    886    888     1  0.0000000  0.6508444  3
    876    874    870    877     1  0.0000000  1.2552000  3
    876    874    886    892     1  0.0000000  0.6508444  3
    876    874    886    887     1  0.0000000  0.6508444  3
    876    874    886    888     1  0.0000000  0.6508444  3
    877    880    889    890     1  0.0000000  0.6508444  3
    877    880    889    891     1  0.0000000  0.6508444  3
    878    877    880    889     1  0.0000000  0.6508444  3
    878    877    880    881     1  0.0000000  0.6508444  3
    878    877    880    882     1  0.0000000  0.6508444  3
    879    877    880    889     1  0.0000000  0.6508444  3
    879    877    880    881     1  0.0000000  0.6508444  3
    879    877    880    882     1  0.0000000  0.6508444  3
    881    880    889    898     1  0.0000000  1.0460000  1
    881    880    889    898     1  0.0000000  0.0000000  3
    881    880    889    890     1  0.0000000  0.6508444  3
    881    880    889    891     1  0.0000000  0.6508444  3
    882    880    889    898     1  0.0000000  1.0460000  1
    882    880    889    898     1  0.0000000  0.0000000  3
    882    880    889    890     1  0.0000000  0.6508444  3
    882    880    889    891     1  0.0000000  0.6508444  3
    884    883    895   1855     1  0.0000000  1.0460000  1
    884    883    895   1855     1  0.0000000  0.0000000  3
    884    883    895    896     1  0.0000000  0.6508444  3
    884    883    895    897     1  0.0000000  0.6508444  3
    885    883    895   1855     1  0.0000000  1.0460000  1
    885    883    895   1855     1  0.0000000  0.0000000  3
    885    883    895    896     1  0.0000000  0.6508444  3
    885    883    895    897     1  0.0000000  0.6508444  3
    887    886    892   1826     1  0.0000000  1.0460000  1
    887    886    892   1826     1  0.0000000  0.0000000  3
    887    886    892    893     1  0.0000000  0.6508444  3
    887    886    892    894     1  0.0000000  0.6508444  3
    888    886    892   1826     1  0.0000000  1.0460000  1
    888    886    892   1826     1  0.0000000  0.0000000  3
    888    886    892    893     1  0.0000000  0.6508444  3
    888    886    892    894     1  0.0000000  0.6508444  3
    892   1826   1817   1818     1  0.0000000  1.6038667  3
    892   1826   1817   1819     1  0.0000000  1.6038667  3
    893    892   1826   1817     1  0.0000000  1.6038667  3
    894    892   1826   1817     1  0.0000000  1.6038667  3
    895   1855   1846   1847     1  0.0000000  1.6038667  3
    895   1855   1846   1848     1  0.0000000  1.6038667  3
    896    895   1855   1846     1  0.0000000  1.6038667  3
    897    895   1855   1846     1  0.0000000  1.6038667  3
    899    900    912    913     1  0.0000000  0.6508444  3
    899    900    912    914     1  0.0000000  0.6508444  3
    899    903    915    916     1  0.0000000  0.6508444  3
    899    903    915    917     1  0.0000000  0.6508444  3
    899    906    909    910     1  0.0000000  0.6508444  3
    899    906    909    911     1  0.0000000  0.6508444  3
    900    899    903    904     1  0.0000000  1.2552000  3
    900    899    903    905     1  0.0000000  1.2552000  3
    900    899    906    907     1  0.0000000  1.2552000  3
    900    899    906    908     1  0.0000000  1.2552000  3
    900    912    924    925     1  0.0000000  0.6508444  3
    900    912    924    926     1  0.0000000  0.6508444  3
    901    900    899    903     1  0.0000000  1.2552000  3
    901    900    899    906     1  0.0000000  1.2552000  3
    901    900    912    924     1  0.0000000  0.6508444  3
    901    900    912    913     1  0.0000000  0.6508444  3
    901    900    912    914     1  0.0000000  0.6508444  3
    902    900    899    903     1  0.0000000  1.2552000  3
    902    900    899    906     1  0.0000000  1.2552000  3
    902    900    912    924     1  0.0000000  0.6508444  3
    902    900    912    913     1  0.0000000  0.6508444  3
    902    900    912    914     1  0.0000000  0.6508444  3
    903    899    906    907     1  0.0000000  1.2552000  3
    903    899    906    908     1  0.0000000  1.2552000  3
    903    915    921    922     1  0.0000000  0.6508444  3
    903    915    921    923     1  0.0000000  0.6508444  3
    904    903    899    906     1  0.0000000  1.2552000  3
    904    903    915    921     1  0.0000000  0.6508444  3
    904    903    915    916     1  0.0000000  0.6508444  3
    904    903    915    917     1  0.0000000  0.6508444  3
    905    903    899    906     1  0.0000000  1.2552000  3
    905    903    915    921     1  0.0000000  0.6508444  3
    905    903    915    916     1  0.0000000  0.6508444  3
    905    903    915    917     1  0.0000000  0.6508444  3
    906    909    918    919     1  0.0000000  0.6508444  3
    906    909    918    920     1  0.0000000  0.6508444  3
    907    906    909    918     1  0.0000000  0.6508444  3
    907    906    909    910     1  0.0000000  0.6508444  3
    907    906    909    911     1  0.0000000  0.6508444  3
    908    906    909    918     1  0.0000000  0.6508444  3
    908    906    909    910     1  0.0000000  0.6508444  3
    908    906    909    911     1  0.0000000  0.6508444  3
    910    909    918    927     1  0.0000000  1.0460000  1
    910    909    918    927     1  0.0000000  0.0000000  3
    910    909    918    919     1  0.0000000  0.6508444  3
    910    909    918    920     1  0.0000000  0.6508444  3
    911    909    918    927     1  0.0000000  1.0460000  1
    911    909    918    927     1  0.0000000  0.0000000  3
    911    909    918    919     1  0.0000000  0.6508444  3
    911    909    918    920     1  0.0000000  0.6508444  3
    913    912    924   1913     1  0.0000000  1.0460000  1
    913    912    924   1913     1  0.0000000  0.0000000  3
    913    912    924    925     1  0.0000000  0.6508444  3
    913    912    924    926     1  0.0000000  0.6508444  3
    914    912    924   1913     1  0.0000000  1.0460000  1
    914    912    924   1913     1  0.0000000  0.0000000  3
    914    912    924    925     1  0.0000000  0.6508444  3
    914    912    924    926     1  0.0000000  0.6508444  3
    916    915    921   1884     1  0.0000000  1.0460000  1
    916    915    921   1884     1  0.0000000  0.0000000  3
    916    915    921    922     1  0.0000000  0.6508444  3
    916    915    921    923     1  0.0000000  0.6508444  3
    917    915    921   1884     1  0.0000000  1.0460000  1
    917    915    921   1884     1  0.0000000  0.0000000  3
    917    915    921    922     1  0.0000000  0.6508444  3
    917    915    921    923     1  0.0000000  0.6508444  3
    921   1884   1875   1876     1  0.0000000  1.6038667  3
    921   1884   1875   1877     1  0.0000000  1.6038667  3
    922    921   1884   1875     1  0.0000000  1.6038667  3
    923    921   1884   1875     1  0.0000000  1.6038667  3
    924   1913   1904   1905     1  0.0000000  1.6038667  3
    924   1913   1904   1906     1  0.0000000  1.6038667  3
    925    924   1913   1904     1  0.0000000  1.6038667  3
    926    924   1913   1904     1  0.0000000  1.6038667  3
    928    929    941    942     1  0.0000000  0.6508444  3
    928    929    941    943     1  0.0000000  0.6508444  3
    928    932    944    945     1  0.0000000  0.6508444  3
    928    932    944    946     1  0.0000000  0.6508444  3
    928    935    938    939     1  0.0000000  0.6508444  3
    928    935    938    940     1  0.0000000  0.6508444  3
    929    928    932    933     1  0.0000000  1.2552000  3
    929    928    932    934     1  0.0000000  1.2552000  3
    929    928    935    936     1  0.0000000  1.2552000  3
    929    928    935    937     1  0.0000000  1.2552000  3
    929    941    953    954     1  0.0000000  0.6508444  3
    929    941    953    955     1  0.0000000  0.6508444  3
    930    929    928    932     1  0.0000000  1.2552000  3
    930    929    928    935     1  0.0000000  1.2552000  3
    930    929    941    953     1  0.0000000  0.6508444  3
    930    929    941    942     1  0.0000000  0.6508444  3
    930    929    941    943     1  0.0000000  0.6508444  3
    931    929    928    932     1  0.0000000  1.2552000  3
    931    929    928    935     1  0.0000000  1.2552000  3
    931    929    941    953     1  0.0000000  0.6508444  3
    931    929    941    942     1  0.0000000  0.6508444  3
    931    929    941    943     1  0.0000000  0.6508444  3
    932    928    935    936     1  0.0000000  1.2552000  3
    932    928    935    937     1  0.0000000  1.2552000  3
    932    944    950    951     1  0.0000000  0.6508444  3
    932    944    950    952     1  0.0000000  0.6508444  3
    933    932    928    935     1  0.0000000  1.2552000  3
    933    932    944    950     1  0.0000000  0.6508444  3
    933    932    944    945     1  0.0000000  0.6508444  3
    933    932    944    946     1  0.0000000  0.6508444  3
    934    932    928    935     1  0.0000000  1.2552000  3
    934    932    944    950     1  0.0000000  0.6508444  3
    934    932    944    945     1  0.0000000  0.6508444  3
    934    932    944    946     1  0.0000000  0.6508444  3
    935    938    947    948     1  0.0000000  0.6508444  3
    935    938    947    949     1  0.0000000  0.6508444  3
    936    935    938    947     1  0.0000000  0.6508444  3
    936    935    938    939     1  0.0000000  0.6508444  3
    936    935    938    940     1  0.0000000  0.6508444  3
    937    935    938    947     1  0.0000000  0.6508444  3
    937    935    938    939     1  0.0000000  0.6508444  3
    937    935    938    940     1  0.0000000  0.6508444  3
    939    938    947    956     1  0.0000000  1.0460000  1
    939    938    947    956     1  0.0000000  0.0000000  3
    939    938    947    948     1  0.0000000  0.6508444  3
    939    938    947    949     1  0.0000000  0.6508444  3
    940    938    947    956     1  0.0000000  1.0460000  1
    940    938    947    956     1  0.0000000  0.0000000  3
    940    938    947    948     1  0.0000000  0.6508444  3
    940    938    947    949     1  0.0000000  0.6508444  3
    942    941    953   1971     1  0.0000000  1.0460000  1
    942    941    953   1971     1  0.0000000  0.0000000  3
    942    941    953    954     1  0.0000000  0.6508444  3
    942    941    953    955     1  0.0000000  0.6508444  3
    943    941    953   1971     1  0.0000000  1.0460000  1
    943    941    953   1971     1  0.0000000  0.0000000  3
    943    941    953    954     1  0.0000000  0.6508444  3
    943    941    953    955     1  0.0000000  0.6508444  3
    945    944    950   1942     1  0.0000000  1.0460000  1
    945    944    950   1942     1  0.0000000  0.0000000  3
    945    944    950    951     1  0.0000000  0.6508444  3
    945    944    950    952     1  0.0000000  0.6508444  3
    946    944    950   1942     1  0.0000000  1.0460000  1
    946    944    950   1942     1  0.0000000  0.0000000  3
    946    944    950    951     1  0.0000000  0.6508444  3
    946    944    950    952     1  0.0000000  0.6508444  3
    950   1942   1933   1934     1  0.0000000  1.6038667  3
    950   1942   1933   1935     1  0.0000000  1.6038667  3
    951    950   1942   1933     1  0.0000000  1.6038667  3
    952    950   1942   1933     1  0.0000000  1.6038667  3
    953   1971   1962   1963     1  0.0000000  1.6038667  3
    953   1971   1962   1964     1  0.0000000  1.6038667  3
    954    953   1971   1962     1  0.0000000  1.6038667  3
    955    953   1971   1962     1  0.0000000  1.6038667  3
    957    958    970    971     1  0.0000000  0.6508444  3
    957    958    970    972     1  0.0000000  0.6508444  3
    957    961    973    974     1  0.0000000  0.6508444  3
    957    961    973    975     1  0.0000000  0.6508444  3
    957    964    967    968     1  0.0000000  0.6508444  3
    957    964    967    969     1  0.0000000  0.6508444  3
    958    957    961    962     1  0.0000000  1.2552000  3
    958    957    961    963     1  0.0000000  1.2552000  3
    958    957    964    965     1  0.0000000  1.2552000  3
    958    957    964    966     1  0.0000000  1.2552000  3
    958    970    982    983     1  0.0000000  0.6508444  3
    958    970    982    984     1  0.0000000  0.6508444  3
    959    958    957    961     1  0.0000000  1.2552000  3
    959    958    957    964     1  0.0000000  1.2552000  3
    959    958    970    982     1  0.0000000  0.6508444  3
    959    958    970    971     1  0.0000000  0.6508444  3
    959    958    970    972     1  0.0000000  0.6508444  3
    960    958    957    961     1  0.0000000  1.2552000  3
    960    958    957    964     1  0.0000000  1.2552000  3
    960    958    970    982     1  0.0000000  0.6508444  3
    960    958    970    971     1  0.0000000  0.6508444  3
    960    958    970    972     1  0.0000000  0.6508444  3
    961    957    964    965     1  0.0000000  1.2552000  3
    961    957    964    966     1  0.0000000  1.2552000  3
    961    973    979    980     1  0.0000000  0.6508444  3
    961    973    979    981     1  0.0000000  0.6508444  3
    962    961    957    964     1  0.0000000  1.2552000  3
    962    961    973    979     1  0.0000000  0.6508444  3
    962    961    973    974     1  0.0000000  0.6508444  3
    962    961    973    975     1  0.0000000  0.6508444  3
    963    961    957    964     1  0.0000000  1.2552000  3
    963    961    973    979     1  0.0000000  0.6508444  3
    963    961    973    974     1  0.0000000  0.6508444  3
    963    961    973    975     1  0.0000000  0.6508444  3
    964    967    976    977     1  0.0000000  0.6508444  3
    964    967    976    978     1  0.0000000  0.6508444  3
    965    964    967    976     1  0.0000000  0.6508444  3
    965    964    967    968     1  0.0000000  0.6508444  3
    965    964    967    969     1  0.0000000  0.6508444  3
    966    964    967    976     1  0.0000000  0.6508444  3
    966    964    967    968     1  0.0000000  0.6508444  3
    966    964    967    969     1  0.0000000  0.6508444  3
    968    967    976    985     1  0.0000000  1.0460000  1
    968    967    976    985     1  0.0000000  0.0000000  3
    968    967    976    977     1  0.0000000  0.6508444  3
    968    967    976    978     1  0.0000000  0.6508444  3
    969    967    976    985     1  0.0000000  1.0460000  1
    969    967    976    985     1  0.0000000  0.0000000  3
    969    967    976    977     1  0.0000000  0.6508444  3
    969    967    976    978     1  0.0000000  0.6508444  3
    971    970    982   2029     1  0.0000000  1.0460000  1
    971    970    982   2029     1  0.0000000  0.0000000  3
    971    970    982    983     1  0.0000000  0.6508444  3
    971    970    982    984     1  0.0000000  0.6508444  3
    972    970    982   2029     1  0.0000000  1.0460000  1
    972    970    982   2029     1  0.0000000  0.0000000  3
    972    970    982    983     1  0.0000000  0.6508444  3
    972    970    982    984     1  0.0000000  0.6508444  3
    974    973    979   2000     1  0.0000000  1.0460000  1
    974    973    979   2000     1  0.0000000  0.0000000  3
    974    973    979    980     1  0.0000000  0.6508444  3
    974    973    979    981     1  0.0000000  0.6508444  3
    975    973    979   2000     1  0.0000000  1.0460000  1
    975    973    979   2000     1  0.0000000  0.0000000  3
    975    973    979    980     1  0.0000000  0.6508444  3
    975    973    979    981     1  0.0000000  0.6508444  3
    979   2000   1991   1992     1  0.0000000  1.6038667  3
    979   2000   1991   1993     1  0.0000000  1.6038667  3
    980    979   2000   1991     1  0.0000000  1.6038667  3
    981    979   2000   1991     1  0.0000000  1.6038667  3
    982   2029   2020   2021     1  0.0000000  1.6038667  3
    982   2029   2020   2022     1  0.0000000  1.6038667  3
    983    982   2029   2020     1  0.0000000  1.6038667  3
    984    982   2029   2020     1  0.0000000  1.6038667  3
    986    987    999   1000     1  0.0000000  0.6508444  3
    986    987    999   1001     1  0.0000000  0.6508444  3
    986    990   1002   1003     1  0.0000000  0.6508444  3
    986    990   1002   1004     1  0.0000000  0.6508444  3
    986    993    996    997     1  0.0000000  0.6508444  3
    986    993    996    998     1  0.0000000  0.6508444  3
    987    986    990    991     1  0.0000000  1.2552000  3
    987    986    990    992     1  0.0000000  1.2552000  3
    987    986    993    994     1  0.0000000  1.2552000  3
    987    986    993    995     1  0.0000000  1.2552000  3
    987    999   1011   1012     1  0.0000000  0.6508444  3
    987    999   1011   1013     1  0.0000000  0.6508444  3
    988    987    986    990     1  0.0000000  1.2552000  3
    988    987    986    993     1  0.0000000  1.2552000  3
    988    987    999   1011     1  0.0000000  0.6508444  3
    988    987    999   1000     1  0.0000000  0.6508444  3
    988    987    999   1001     1  0.0000000  0.6508444  3
    989    987    986    990     1  0.0000000  1.2552000  3
    989    987    986    993     1  0.0000000  1.2552000  3
    989    987    999   1011     1  0.0000000  0.6508444  3
    989    987    999   1000     1  0.0000000  0.6508444  3
    989    987    999   1001     1  0.0000000  0.6508444  3
    990    986    993    994     1  0.0000000  1.2552000  3
    990    986    993    995     1  0.0000000  1.2552000  3
    990   1002   1008   1009     1  0.0000000  0.6508444  3
    990   1002   1008   1010     1  0.0000000  0.6508444  3
    991    990    986    993     1  0.0000000  1.2552000  3
    991    990   1002   1008     1  0.0000000  0.6508444  3
    991    990   1002   1003     1  0.0000000  0.6508444  3
    991    990   1002   1004     1  0.0000000  0.6508444  3
    992    990    986    993     1  0.0000000  1.2552000  3
    992    990   1002   1008     1  0.0000000  0.6508444  3
    992    990   1002   1003     1  0.0000000  0.6508444  3
    992    990   1002   1004     1  0.0000000  0.6508444  3
    993    996   1005   1006     1  0.0000000  0.6508444  3
    993    996   1005   1007     1  0.0000000  0.6508444  3
    994    993    996   1005     1  0.0000000  0.6508444  3
    994    993    996    997     1  0.0000000  0.6508444  3
    994    993    996    998     1  0.0000000  0.6508444  3
    995    993    996   1005     1  0.0000000  0.6508444  3
    995    993    996    997     1  0.0000000  0.6508444  3
    995    993    996    998     1  0.0000000  0.6508444  3
    997    996   1005   1014     1  0.0000000  1.0460000  1
    997    996   1005   1014     1  0.0000000  0.0000000  3
    997    996   1005   1006     1  0.0000000  0.6508444  3
    997    996   1005   1007     1  0.0000000  0.6508444  3
    998    996   1005   1014     1  0.0000000  1.0460000  1
    998    996   1005   1014     1  0.0000000  0.0000000  3
    998    996   1005   1006     1  0.0000000  0.6508444  3
    998    996   1005   1007     1  0.0000000  0.6508444  3
   1000    999   1011   2087     1  0.0000000  1.0460000  1
   1000    999   1011   2087     1  0.0000000  0.0000000  3
   1000    999   1011   1012     1  0.0000000  0.6508444  3
   1000    999   1011   1013     1  0.0000000  0.6508444  3
   1001    999   1011   2087     1  0.0000000  1.0460000  1
   1001    999   1011   2087     1  0.0000000  0.0000000  3
   1001    999   1011   1012     1  0.0000000  0.6508444  3
   1001    999   1011   1013     1  0.0000000  0.6508444  3
   1003   1002   1008   2058     1  0.0000000  1.0460000  1
   1003   1002   1008   2058     1  0.0000000  0.0000000  3
   1003   1002   1008   1009     1  0.0000000  0.6508444  3
   1003   1002   1008   1010     1  0.0000000  0.6508444  3
   1004   1002   1008   2058     1  0.0000000  1.0460000  1
   1004   1002   1008   2058     1  0.0000000  0.0000000  3
   1004   1002   1008   1009     1  0.0000000  0.6508444  3
   1004   1002   1008   1010     1  0.0000000  0.6508444  3
   1008   2058   2049   2050     1  0.0000000  1.6038667  3
   1008   2058   2049   2051     1  0.0000000  1.6038667  3
   1009   1008   2058   2049     1  0.0000000  1.6038667  3
   1010   1008   2058   2049     1  0.0000000  1.6038667  3
   1011   2087   2078   2079     1  0.0000000  1.6038667  3
   1011   2087   2078   2080     1  0.0000000  1.6038667  3
   1012   1011   2087   2078     1  0.0000000  1.6038667  3
   1013   1011   2087   2078     1  0.0000000  1.6038667  3
   1015   1016   1028   1029     1  0.0000000  0.6508444  3
   1015   1016   1028   1030     1  0.0000000  0.6508444  3
   1015   1019   1031   1032     1  0.0000000  0.6508444  3
   1015   1019   1031   1033     1  0.0000000  0.6508444  3
   1015   1022   1025   1026     1  0.0000000  0.6508444  3
   1015   1022   1025   1027     1  0.0000000  0.6508444  3
   1016   1015   1019   1020     1  0.0000000  1.2552000  3
   1016   1015   1019   1021     1  0.0000000  1.2552000  3
   1016   1015   1022   1023     1  0.0000000  1.2552000  3
   1016   1015   1022   1024     1  0.0000000  1.2552000  3
   1016   1028   1040   1041     1  0.0000000  0.6508444  3
   1016   1028   1040   1042     1  0.0000000  0.6508444  3
   1017   1016   1015   1019     1  0.0000000  1.2552000  3
   1017   1016   1015   1022     1  0.0000000  1.2552000  3
   1017   1016   1028   1040     1  0.0000000  0.6508444  3
   1017   1016   1028   1029     1  0.0000000  0.6508444  3
   1017   1016   1028   1030     1  0.0000000  0.6508444  3
   1018   1016   1015   1019     1  0.0000000  1.2552000  3
   1018   1016   1015   1022     1  0.0000000  1.2552000  3
   1018   1016   1028   1040     1  0.0000000  0.6508444  3
   1018   1016   1028   1029     1  0.0000000  0.6508444  3
   1018   1016   1028   1030     1  0.0000000  0.6508444  3
   1019   1015   1022   1023     1  0.0000000  1.2552000  3
   1019   1015   1022   1024     1  0.0000000  1.2552000  3
   1019   1031   1037   1038     1  0.0000000  0.6508444  3
   1019   1031   1037   1039     1  0.0000000  0.6508444  3
   1020   1019   1015   1022     1  0.0000000  1.2552000  3
   1020   1019   1031   1037     1  0.0000000  0.6508444  3
   1020   1019   1031   1032     1  0.0000000  0.6508444  3
   1020   1019   1031   1033     1  0.0000000  0.6508444  3
   1021   1019   1015   1022     1  0.0000000  1.2552000  3
   1021   1019   1031   1037     1  0.0000000  0.6508444  3
   1021   1019   1031   1032     1  0.0000000  0.6508444  3
   1021   1019   1031   1033     1  0.0000000  0.6508444  3
   1022   1025   1034   1035     1  0.0000000  0.6508444  3
   1022   1025   1034   1036     1  0.0000000  0.6508444  3
   1023   1022   1025   1034     1  0.0000000  0.6508444  3
   1023   1022   1025   1026     1  0.0000000  0.6508444  3
   1023   1022   1025   1027     1  0.0000000  0.6508444  3
   1024   1022   1025   1034     1  0.0000000  0.6508444  3
   1024   1022   1025   1026     1  0.0000000  0.6508444  3
   1024   1022   1025   1027     1  0.0000000  0.6508444  3
   1026   1025   1034   1043     1  0.0000000  1.0460000  1
   1026   1025   1034   1043     1  0.0000000  0.0000000  3
   1026   1025   1034   1035     1  0.0000000  0.6508444  3
   1026   1025   1034   1036     1  0.0000000  0.6508444  3
   1027   1025   1034   1043     1  0.0000000  1.0460000  1
   1027   1025   1034   1043     1  0.0000000  0.0000000  3
   1027   1025   1034   1035     1  0.0000000  0.6508444  3
   1027   1025   1034   1036     1  0.0000000  0.6508444  3
   1029   1028   1040   2145     1  0.0000000  1.0460000  1
   1029   1028   1040   2145     1  0.0000000  0.0000000  3
   1029   1028   1040   1041     1  0.0000000  0.6508444  3
   1029   1028   1040   1042     1  0.0000000  0.6508444  3
   1030   1028   1040   2145     1  0.0000000  1.0460000  1
   1030   1028   1040   2145     1  0.0000000  0.0000000  3
   1030   1028   1040   1041     1  0.0000000  0.6508444  3
   1030   1028   1040   1042     1  0.0000000  0.6508444  3
   1032   1031   1037   2116     1  0.0000000  1.0460000  1
   1032   1031   1037   2116     1  0.0000000  0.0000000  3
   1032   1031   1037   1038     1  0.0000000  0.6508444  3
   1032   1031   1037   1039     1  0.0000000  0.6508444  3
   1033   1031   1037   2116     1  0.0000000  1.0460000  1
   1033   1031   1037   2116     1  0.0000000  0.0000000  3
   1033   1031   1037   1038     1  0.0000000  0.6508444  3
   1033   1031   1037   1039     1  0.0000000  0.6508444  3
   1037   2116   2107   2108     1  0.0000000  1.6038667  3
   1037   2116   2107   2109     1  0.0000000  1.6038667  3
   1038   1037   2116   2107     1  0.0000000  1.6038667  3
   1039   1037   2116   2107     1  0.0000000  1.6038667  3
   1040   2145   2136   2137     1  0.0000000  1.6038667  3
   1040   2145   2136   2138     1  0.0000000  1.6038667  3
   1041   1040   2145   2136     1  0.0000000  1.6038667  3
   1042   1040   2145   2136     1  0.0000000  1.6038667  3
   1044   1045   1057   1058     1  0.0000000  0.6508444  3
   1044   1045   1057   1059     1  0.0000000  0.6508444  3
   1044   1048   1060   1061     1  0.0000000  0.6508444  3
   1044   1048   1060   1062     1  0.0000000  0.6508444  3
   1044   1051   1054   1055     1  0.0000000  0.6508444  3
   1044   1051   1054   1056     1  0.0000000  0.6508444  3
   1045   1044   1048   1049     1  0.0000000  1.2552000  3
   1045   1044   1048   1050     1  0.0000000  1.2552000  3
   1045   1044   1051   1052     1  0.0000000  1.2552000  3
   1045   1044   1051   1053     1  0.0000000  1.2552000  3
   1045   1057   1069   1070     1  0.0000000  0.6508444  3
   1045   1057   1069   1071     1  0.0000000  0.6508444  3
   1046   1045   1044   1048     1  0.0000000  1.2552000  3
   1046   1045   1044   1051     1  0.0000000  1.2552000  3
   1046   1045   1057   1069     1  0.0000000  0.6508444  3
   1046   1045   1057   1058     1  0.0000000  0.6508444  3
   1046   1045   1057   1059     1  0.0000000  0.6508444  3
   1047   1045   1044   1048     1  0.0000000  1.2552000  3
   1047   1045   1044   1051     1  0.0000000  1.2552000  3
   1047   1045   1057   1069     1  0.0000000  0.6508444  3
   1047   1045   1057   1058     1  0.0000000  0.6508444  3
   1047   1045   1057   1059     1  0.0000000  0.6508444  3
   1048   1044   1051   1052     1  0.0000000  1.2552000  3
   1048   1044   1051   1053     1  0.0000000  1.2552000  3
   1048   1060   1066   1067     1  0.0000000  0.6508444  3
   1048   1060   1066   1068     1  0.0000000  0.6508444  3
   1049   1048   1044   1051     1  0.0000000  1.2552000  3
   1049   1048   1060   1066     1  0.0000000  0.6508444  3
   1049   1048   1060   1061     1  0.0000000  0.6508444  3
   1049   1048   1060   1062     1  0.0000000  0.6508444  3
   1050   1048   1044   1051     1  0.0000000  1.2552000  3
   1050   1048   1060   1066     1  0.0000000  0.6508444  3
   1050   1048   1060   1061     1  0.0000000  0.6508444  3
   1050   1048   1060   1062     1  0.0000000  0.6508444  3
   1051   1054   1063   1064     1  0.0000000  0.6508444  3
   1051   1054   1063   1065     1  0.0000000  0.6508444  3
   1052   1051   1054   1063     1  0.0000000  0.6508444  3
   1052   1051   1054   1055     1  0.0000000  0.6508444  3
   1052   1051   1054   1056     1  0.0000000  0.6508444  3
   1053   1051   1054   1063     1  0.0000000  0.6508444  3
   1053   1051   1054   1055     1  0.0000000  0.6508444  3
   1053   1051   1054   1056     1  0.0000000  0.6508444  3
   1055   1054   1063   1072     1  0.0000000  1.0460000  1
   1055   1054   1063   1072     1  0.0000000  0.0000000  3
   1055   1054   1063   1064     1  0.0000000  0.6508444  3
   1055   1054   1063   1065     1  0.0000000  0.6508444  3
   1056   1054   1063   1072     1  0.0000000  1.0460000  1
   1056   1054   1063   1072     1  0.0000000  0.0000000  3
   1056   1054   1063   1064     1  0.0000000  0.6508444  3
   1056   1054   1063   1065     1  0.0000000  0.6508444  3
   1058   1057   1069   2203     1  0.0000000  1.0460000  1
   1058   1057   1069   2203     1  0.0000000  0.0000000  3
   1058   1057   1069   1070     1  0.0000000  0.6508444  3
   1058   1057   1069   1071     1  0.0000000  0.6508444  3
   1059   1057   1069   2203     1  0.0000000  1.0460000  1
   1059   1057   1069   2203     1  0.0000000  0.0000000  3
   1059   1057   1069   1070     1  0.0000000  0.6508444  3
   1059   1057   1069   1071     1  0.0000000  0.6508444  3
   1061   1060   1066   2174     1  0.0000000  1.0460000  1
   1061   1060   1066   2174     1  0.0000000  0.0000000  3
   1061   1060   1066   1067     1  0.0000000  0.6508444  3
   1061   1060   1066   1068     1  0.0000000  0.6508444  3
   1062   1060   1066   2174     1  0.0000000  1.0460000  1
   1062   1060   1066   2174     1  0.0000000  0.0000000  3
   1062   1060   1066   1067     1  0.0000000  0.6508444  3
   1062   1060   1066   1068     1  0.0000000  0.6508444  3
   1066   2174   2165   2166     1  0.0000000  1.6038667  3
   1066   2174   2165   2167     1  0.0000000  1.6038667  3
   1067   1066   2174   2165     1  0.0000000  1.6038667  3
   1068   1066   2174   2165     1  0.0000000  1.6038667  3
   1069   2203   2194   2195     1  0.0000000  1.6038667  3
   1069   2203   2194   2196     1  0.0000000  1.6038667  3
   1070   1069   2203   2194     1  0.0000000  1.6038667  3
   1071   1069   2203   2194     1  0.0000000  1.6038667  3
   1073   1074   1086   1087     1  0.0000000  0.6508444  3
   1073   1074   1086   1088     1  0.0000000  0.6508444  3
   1073   1077   1089   1090     1  0.0000000  0.6508444  3
   1073   1077   1089   1091     1  0.0000000  0.6508444  3
   1073   1080   1083   1084     1  0.0000000  0.6508444  3
   1073   1080   1083   1085     1  0.0000000  0.6508444  3
   1074   1073   1077   1078     1  0.0000000  1.2552000  3
   1074   1073   1077   1079     1  0.0000000  1.2552000  3
   1074   1073   1080   1081     1  0.0000000  1.2552000  3
   1074   1073   1080   1082     1  0.0000000  1.2552000  3
   1074   1086   1098   1099     1  0.0000000  0.6508444  3
   1074   1086   1098   1100     1  0.0000000  0.6508444  3
   1075   1074   1073   1077     1  0.0000000  1.2552000  3
   1075   1074   1073   1080     1  0.0000000  1.2552000  3
   1075   1074   1086   1098     1  0.0000000  0.6508444  3
   1075   1074   1086   1087     1  0.0000000  0.6508444  3
   1075   1074   1086   1088     1  0.0000000  0.6508444  3
   1076   1074   1073   1077     1  0.0000000  1.2552000  3
   1076   1074   1073   1080     1  0.0000000  1.2552000  3
   1076   1074   1086   1098     1  0.0000000  0.6508444  3
   1076   1074   1086   1087     1  0.0000000  0.6508444  3
   1076   1074   1086   1088     1  0.0000000  0.6508444  3
   1077   1073   1080   1081     1  0.0000000  1.2552000  3
   1077   1073   1080   1082     1  0.0000000  1.2552000  3
   1077   1089   1095   1096     1  0.0000000  0.6508444  3
   1077   1089   1095   1097     1  0.0000000  0.6508444  3
   1078   1077   1073   1080     1  0.0000000  1.2552000  3
   1078   1077   1089   1095     1  0.0000000  0.6508444  3
   1078   1077   1089   1090     1  0.0000000  0.6508444  3
   1078   1077   1089   1091     1  0.0000000  0.6508444  3
   1079   1077   1073   1080     1  0.0000000  1.2552000  3
   1079   1077   1089   1095     1  0.0000000  0.6508444  3
   1079   1077   1089   1090     1  0.0000000  0.6508444  3
   1079   1077   1089   1091     1  0.0000000  0.6508444  3
   1080   1083   1092   1093     1  0.0000000  0.6508444  3
   1080   1083   1092   1094     1  0.0000000  0.6508444  3
   1081   1080   1083   1092     1  0.0000000  0.6508444  3
   1081   1080   1083   1084     1  0.0000000  0.6508444  3
   1081   1080   1083   1085     1  0.0000000  0.6508444  3
   1082   1080   1083   1092     1  0.0000000  0.6508444  3
   1082   1080   1083   1084     1  0.0000000  0.6508444  3
   1082   1080   1083   1085     1  0.0000000  0.6508444  3
   1084   1083   1092   1101     1  0.0000000  1.0460000  1
   1084   1083   1092   1101     1  0.0000000  0.0000000  3
   1084   1083   1092   1093     1  0.0000000  0.6508444  3
   1084   1083   1092   1094     1  0.0000000  0.6508444  3
   1085   1083   1092   1101     1  0.0000000  1.0460000  1
   1085   1083   1092   1101     1  0.0000000  0.0000000  3
   1085   1083   1092   1093     1  0.0000000  0.6508444  3
   1085   1083   1092   1094     1  0.0000000  0.6508444  3
   1087   1086   1098   2261     1  0.0000000  1.0460000  1
   1087   1086   1098   2261     1  0.0000000  0.0000000  3
   1087   1086   1098   1099     1  0.0000000  0.6508444  3
   1087   1086   1098   1100     1  0.0000000  0.6508444  3
   1088   1086   1098   2261     1  0.0000000  1.0460000  1
   1088   1086   1098   2261     1  0.0000000  0.0000000  3
   1088   1086   1098   1099     1  0.0000000  0.6508444  3
   1088   1086   1098   1100     1  0.0000000  0.6508444  3
   1090   1089   1095   2232     1  0.0000000  1.0460000  1
   1090   1089   1095   2232     1  0.0000000  0.0000000  3
   1090   1089   1095   1096     1  0.0000000  0.6508444  3
   1090   1089   1095   1097     1  0.0000000  0.6508444  3
   1091   1089   1095   2232     1  0.0000000  1.0460000  1
   1091   1089   1095   2232     1  0.0000000  0.0000000  3
   1091   1089   1095   1096     1  0.0000000  0.6508444  3
   1091   1089   1095   1097     1  0.0000000  0.6508444  3
   1095   2232   2223   2224     1  0.0000000  1.6038667  3
   1095   2232   2223   2225     1  0.0000000  1.6038667  3
   1096   1095   2232   2223     1  0.0000000  1.6038667  3
   1097   1095   2232   2223     1  0.0000000  1.6038667  3
   1098   2261   2252   2253     1  0.0000000  1.6038667  3
   1098   2261   2252   2254     1  0.0000000  1.6038667  3
   1099   1098   2261   2252     1  0.0000000  1.6038667  3
   1100   1098   2261   2252     1  0.0000000  1.6038667  3
   1102   1103   1115   1116     1  0.0000000  0.6508444  3
   1102   1103   1115   1117     1  0.0000000  0.6508444  3
   1102   1106   1118   1119     1  0.0000000  0.6508444  3
   1102   1106   1118   1120     1  0.0000000  0.6508444  3
   1102   1109   1112   1113     1  0.0000000  0.6508444  3
   1102   1109   1112   1114     1  0.0000000  0.6508444  3
   1103   1102   1106   1107     1  0.0000000  1.2552000  3
   1103   1102   1106   1108     1  0.0000000  1.2552000  3
   1103   1102   1109   1110     1  0.0000000  1.2552000  3
   1103   1102   1109   1111     1  0.0000000  1.2552000  3
   1103   1115   1127   1128     1  0.0000000  0.6508444  3
   1103   1115   1127   1129     1  0.0000000  0.6508444  3
   1104   1103   1102   1106     1  0.0000000  1.2552000  3
   1104   1103   1102   1109     1  0.0000000  1.2552000  3
   1104   1103   1115   1127     1  0.0000000  0.6508444  3
   1104   1103   1115   1116     1  0.0000000  0.6508444  3
   1104   1103   1115   1117     1  0.0000000  0.6508444  3
   1105   1103   1102   1106     1  0.0000000  1.2552000  3
   1105   1103   1102   1109     1  0.0000000  1.2552000  3
   1105   1103   1115   1127     1  0.0000000  0.6508444  3
   1105   1103   1115   1116     1  0.0000000  0.6508444  3
   1105   1103   1115   1117     1  0.0000000  0.6508444  3
   1106   1102   1109   1110     1  0.0000000  1.2552000  3
   1106   1102   1109   1111     1  0.0000000  1.2552000  3
   1106   1118   1124   1125     1  0.0000000  0.6508444  3
   1106   1118   1124   1126     1  0.0000000  0.6508444  3
   1107   1106   1102   1109     1  0.0000000  1.2552000  3
   1107   1106   1118   1124     1  0.0000000  0.6508444  3
   1107   1106   1118   1119     1  0.0000000  0.6508444  3
   1107   1106   1118   1120     1  0.0000000  0.6508444  3
   1108   1106   1102   1109     1  0.0000000  1.2552000  3
   1108   1106   1118   1124     1  0.0000000  0.6508444  3
   1108   1106   1118   1119     1  0.0000000  0.6508444  3
   1108   1106   1118   1120     1  0.0000000  0.6508444  3
   1109   1112   1121   1122     1  0.0000000  0.6508444  3
   1109   1112   1121   1123     1  0.0000000  0.6508444  3
   1110   1109   1112   1121     1  0.0000000  0.6508444  3
   1110   1109   1112   1113     1  0.0000000  0.6508444  3
   1110   1109   1112   1114     1  0.0000000  0.6508444  3
   1111   1109   1112   1121     1  0.0000000  0.6508444  3
   1111   1109   1112   1113     1  0.0000000  0.6508444  3
   1111   1109   1112   1114     1  0.0000000  0.6508444  3
   1113   1112   1121   1130     1  0.0000000  1.0460000  1
   1113   1112   1121   1130     1  0.0000000  0.0000000  3
   1113   1112   1121   1122     1  0.0000000  0.6508444  3
   1113   1112   1121   1123     1  0.0000000  0.6508444  3
   1114   1112   1121   1130     1  0.0000000  1.0460000  1
   1114   1112   1121   1130     1  0.0000000  0.0000000  3
   1114   1112   1121   1122     1  0.0000000  0.6508444  3
   1114   1112   1121   1123     1  0.0000000  0.6508444  3
   1116   1115   1127   2319     1  0.0000000  1.0460000  1
   1116   1115   1127   2319     1  0.0000000  0.0000000  3
   1116   1115   1127   1128     1  0.0000000  0.6508444  3
   1116   1115   1127   1129     1  0.0000000  0.6508444  3
   1117   1115   1127   2319     1  0.0000000  1.0460000  1
   1117   1115   1127   2319     1  0.0000000  0.0000000  3
   1117   1115   1127   1128     1  0.0000000  0.6508444  3
   1117   1115   1127   1129     1  0.0000000  0.6508444  3
   1119   1118   1124   2290     1  0.0000000  1.0460000  1
   1119   1118   1124   2290     1  0.0000000  0.0000000  3
   1119   1118   1124   1125     1  0.0000000  0.6508444  3
   1119   1118   1124   1126     1  0.0000000  0.6508444  3
   1120   1118   1124   2290     1  0.0000000  1.0460000  1
   1120   1118   1124   2290     1  0.0000000  0.0000000  3
   1120   1118   1124   1125     1  0.0000000  0.6508444  3
   1120   1118   1124   1126     1  0.0000000  0.6508444  3
   1124   2290   2281   2282     1  0.0000000  1.6038667  3
   1124   2290   2281   2283     1  0.0000000  1.6038667  3
   1125   1124   2290   2281     1  0.0000000  1.6038667  3
   1126   1124   2290   2281     1  0.0000000  1.6038667  3
   1127   2319   2310   2311     1  0.0000000  1.6038667  3
   1127   2319   2310   2312     1  0.0000000  1.6038667  3
   1128   1127   2319   2310     1  0.0000000  1.6038667  3
   1129   1127   2319   2310     1  0.0000000  1.6038667  3
   1131   1132   1144   1145     1  0.0000000  0.6508444  3
   1131   1132   1144   1146     1  0.0000000  0.6508444  3
   1131   1135   1147   1148     1  0.0000000  0.6508444  3
   1131   1135   1147   1149     1  0.0000000  0.6508444  3
   1131   1138   1141   1142     1  0.0000000  0.6508444  3
   1131   1138   1141   1143     1  0.0000000  0.6508444  3
   1132   1131   1135   1136     1  0.0000000  1.2552000  3
   1132   1131   1135   1137     1  0.0000000  1.2552000  3
   1132   1131   1138   1139     1  0.0000000  1.2552000  3
   1132   1131   1138   1140     1  0.0000000  1.2552000  3
   1132   1144   1156   1157     1  0.0000000  0.6508444  3
   1132   1144   1156   1158     1  0.0000000  0.6508444  3
   1133   1132   1131   1135     1  0.0000000  1.2552000  3
   1133   1132   1131   1138     1  0.0000000  1.2552000  3
   1133   1132   1144   1156     1  0.0000000  0.6508444  3
   1133   1132   1144   1145     1  0.0000000  0.6508444  3
   1133   1132   1144   1146     1  0.0000000  0.6508444  3
   1134   1132   1131   1135     1  0.0000000  1.2552000  3
   1134   1132   1131   1138     1  0.0000000  1.2552000  3
   1134   1132   1144   1156     1  0.0000000  0.6508444  3
   1134   1132   1144   1145     1  0.0000000  0.6508444  3
   1134   1132   1144   1146     1  0.0000000  0.6508444  3
   1135   1131   1138   1139     1  0.0000000  1.2552000  3
   1135   1131   1138   1140     1  0.0000000  1.2552000  3
   1135   1147   1153   1154     1  0.0000000  0.6508444  3
   1135   1147   1153   1155     1  0.0000000  0.6508444  3
   1136   1135   1131   1138     1  0.0000000  1.2552000  3
   1136   1135   1147   1153     1  0.0000000  0.6508444  3
   1136   1135   1147   1148     1  0.0000000  0.6508444  3
   1136   1135   1147   1149     1  0.0000000  0.6508444  3
   1137   1135   1131   1138     1  0.0000000  1.2552000  3
   1137   1135   1147   1153     1  0.0000000  0.6508444  3
   1137   1135   1147   1148     1  0.0000000  0.6508444  3
   1137   1135   1147   1149     1  0.0000000  0.6508444  3
   1138   1141   1150   1151     1  0.0000000  0.6508444  3
   1138   1141   1150   1152     1  0.0000000  0.6508444  3
   1139   1138   1141   1150     1  0.0000000  0.6508444  3
   1139   1138   1141   1142     1  0.0000000  0.6508444  3
   1139   1138   1141   1143     1  0.0000000  0.6508444  3
   1140   1138   1141   1150     1  0.0000000  0.6508444  3
   1140   1138   1141   1142     1  0.0000000  0.6508444  3
   1140   1138   1141   1143     1  0.0000000  0.6508444  3
   1142   1141   1150   1159     1  0.0000000  1.0460000  1
   1142   1141   1150   1159     1  0.0000000  0.0000000  3
   1142   1141   1150   1151     1  0.0000000  0.6508444  3
   1142   1141   1150   1152     1  0.0000000  0.6508444  3
   1143   1141   1150   1159     1  0.0000000  1.0460000  1
   1143   1141   1150   1159     1  0.0000000  0.0000000  3
   1143   1141   1150   1151     1  0.0000000  0.6508444  3
   1143   1141   1150   1152     1  0.0000000  0.6508444  3
   1145   1144   1156   2377     1  0.0000000  1.0460000  1
   1145   1144   1156   2377     1  0.0000000  0.0000000  3
   1145   1144   1156   1157     1  0.0000000  0.6508444  3
   1145   1144   1156   1158     1  0.0000000  0.6508444  3
   1146   1144   1156   2377     1  0.0000000  1.0460000  1
   1146   1144   1156   2377     1  0.0000000  0.0000000  3
   1146   1144   1156   1157     1  0.0000000  0.6508444  3
   1146   1144   1156   1158     1  0.0000000  0.6508444  3
   1148   1147   1153   2348     1  0.0000000  1.0460000  1
   1148   1147   1153   2348     1  0.0000000  0.0000000  3
   1148   1147   1153   1154     1  0.0000000  0.6508444  3
   1148   1147   1153   1155     1  0.0000000  0.6508444  3
   1149   1147   1153   2348     1  0.0000000  1.0460000  1
   1149   1147   1153   2348     1  0.0000000  0.0000000  3
   1149   1147   1153   1154     1  0.0000000  0.6508444  3
   1149   1147   1153   1155     1  0.0000000  0.6508444  3
   1153   2348   2339   2340     1  0.0000000  1.6038667  3
   1153   2348   2339   2341     1  0.0000000  1.6038667  3
   1154   1153   2348   2339     1  0.0000000  1.6038667  3
   1155   1153   2348   2339     1  0.0000000  1.6038667  3
   1156   2377   2368   2369     1  0.0000000  1.6038667  3
   1156   2377   2368   2370     1  0.0000000  1.6038667  3
   1157   1156   2377   2368     1  0.0000000  1.6038667  3
   1158   1156   2377   2368     1  0.0000000  1.6038667  3
   1160   1161   1173   1174     1  0.0000000  0.6508444  3
   1160   1161   1173   1175     1  0.0000000  0.6508444  3
   1160   1164   1176   1177     1  0.0000000  0.6508444  3
   1160   1164   1176   1178     1  0.0000000  0.6508444  3
   1160   1167   1170   1171     1  0.0000000  0.6508444  3
   1160   1167   1170   1172     1  0.0000000  0.6508444  3
   1161   1160   1164   1165     1  0.0000000  1.2552000  3
   1161   1160   1164   1166     1  0.0000000  1.2552000  3
   1161   1160   1167   1168     1  0.0000000  1.2552000  3
   1161   1160   1167   1169     1  0.0000000  1.2552000  3
   1161   1173   1185   1186     1  0.0000000  0.6508444  3
   1161   1173   1185   1187     1  0.0000000  0.6508444  3
   1162   1161   1160   1164     1  0.0000000  1.2552000  3
   1162   1161   1160   1167     1  0.0000000  1.2552000  3
   1162   1161   1173   1185     1  0.0000000  0.6508444  3
   1162   1161   1173   1174     1  0.0000000  0.6508444  3
   1162   1161   1173   1175     1  0.0000000  0.6508444  3
   1163   1161   1160   1164     1  0.0000000  1.2552000  3
   1163   1161   1160   1167     1  0.0000000  1.2552000  3
   1163   1161   1173   1185     1  0.0000000  0.6508444  3
   1163   1161   1173   1174     1  0.0000000  0.6508444  3
   1163   1161   1173   1175     1  0.0000000  0.6508444  3
   1164   1160   1167   1168     1  0.0000000  1.2552000  3
   1164   1160   1167   1169     1  0.0000000  1.2552000  3
   1164   1176   1182   1183     1  0.0000000  0.6508444  3
   1164   1176   1182   1184     1  0.0000000  0.6508444  3
   1165   1164   1160   1167     1  0.0000000  1.2552000  3
   1165   1164   1176   1182     1  0.0000000  0.6508444  3
   1165   1164   1176   1177     1  0.0000000  0.6508444  3
   1165   1164   1176   1178     1  0.0000000  0.6508444  3
   1166   1164   1160   1167     1  0.0000000  1.2552000  3
   1166   1164   1176   1182     1  0.0000000  0.6508444  3
   1166   1164   1176   1177     1  0.0000000  0.6508444  3
   1166   1164   1176   1178     1  0.0000000  0.6508444  3
   1167   1170   1179   1180     1  0.0000000  0.6508444  3
   1167   1170   1179   1181     1  0.0000000  0.6508444  3
   1168   1167   1170   1179     1  0.0000000  0.6508444  3
   1168   1167   1170   1171     1  0.0000000  0.6508444  3
   1168   1167   1170   1172     1  0.0000000  0.6508444  3
   1169   1167   1170   1179     1  0.0000000  0.6508444  3
   1169   1167   1170   1171     1  0.0000000  0.6508444  3
   1169   1167   1170   1172     1  0.0000000  0.6508444  3
   1171   1170   1179   1188     1  0.0000000  1.0460000  1
   1171   1170   1179   1188     1  0.0000000  0.0000000  3
   1171   1170   1179   1180     1  0.0000000  0.6508444  3
   1171   1170   1179   1181     1  0.0000000  0.6508444  3
   1172   1170   1179   1188     1  0.0000000  1.0460000  1
   1172   1170   1179   1188     1  0.0000000  0.0000000  3
   1172   1170   1179   1180     1  0.0000000  0.6508444  3
   1172   1170   1179   1181     1  0.0000000  0.6508444  3
   1174   1173   1185   2435     1  0.0000000  1.0460000  1
   1174   1173   1185   2435     1  0.0000000  0.0000000  3
   1174   1173   1185   1186     1  0.0000000  0.6508444  3
   1174   1173   1185   1187     1  0.0000000  0.6508444  3
   1175   1173   1185   2435     1  0.0000000  1.0460000  1
   1175   1173   1185   2435     1  0.0000000  0.0000000  3
   1175   1173   1185   1186     1  0.0000000  0.6508444  3
   1175   1173   1185   1187     1  0.0000000  0.6508444  3
   1177   1176   1182   2406     1  0.0000000  1.0460000  1
   1177   1176   1182   2406     1  0.0000000  0.0000000  3
   1177   1176   1182   1183     1  0.0000000  0.6508444  3
   1177   1176   1182   1184     1  0.0000000  0.6508444  3
   1178   1176   1182   2406     1  0.0000000  1.0460000  1
   1178   1176   1182   2406     1  0.0000000  0.0000000  3
   1178   1176   1182   1183     1  0.0000000  0.6508444  3
   1178   1176   1182   1184     1  0.0000000  0.6508444  3
   1182   2406   2397   2398     1  0.0000000  1.6038667  3
   1182   2406   2397   2399     1  0.0000000  1.6038667  3
   1183   1182   2406   2397     1  0.0000000  1.6038667  3
   1184   1182   2406   2397     1  0.0000000  1.6038667  3
   1185   2435   2426   2427     1  0.0000000  1.6038667  3
   1185   2435   2426   2428     1  0.0000000  1.6038667  3
   1186   1185   2435   2426     1  0.0000000  1.6038667  3
   1187   1185   2435   2426     1  0.0000000  1.6038667  3
   1189   1190   1202   1203     1  0.0000000  0.6508444  3
   1189   1190   1202   1204     1  0.0000000  0.6508444  3
   1189   1193   1205   1206     1  0.0000000  0.6508444  3
   1189   1193   1205   1207     1  0.0000000  0.6508444  3
   1189   1196   1199   1200     1  0.0000000  0.6508444  3
   1189   1196   1199   1201     1  0.0000000  0.6508444  3
   1190   1189   1193   1194     1  0.0000000  1.2552000  3
   1190   1189   1193   1195     1  0.0000000  1.2552000  3
   1190   1189   1196   1197     1  0.0000000  1.2552000  3
   1190   1189   1196   1198     1  0.0000000  1.2552000  3
   1190   1202   1214   1215     1  0.0000000  0.6508444  3
   1190   1202   1214   1216     1  0.0000000  0.6508444  3
   1191   1190   1189   1193     1  0.0000000  1.2552000  3
   1191   1190   1189   1196     1  0.0000000  1.2552000  3
   1191   1190   1202   1214     1  0.0000000  0.6508444  3
   1191   1190   1202   1203     1  0.0000000  0.6508444  3
   1191   1190   1202   1204     1  0.0000000  0.6508444  3
   1192   1190   1189   1193     1  0.0000000  1.2552000  3
   1192   1190   1189   1196     1  0.0000000  1.2552000  3
   1192   1190   1202   1214     1  0.0000000  0.6508444  3
   1192   1190   1202   1203     1  0.0000000  0.6508444  3
   1192   1190   1202   1204     1  0.0000000  0.6508444  3
   1193   1189   1196   1197     1  0.0000000  1.2552000  3
   1193   1189   1196   1198     1  0.0000000  1.2552000  3
   1193   1205   1211   1212     1  0.0000000  0.6508444  3
   1193   1205   1211   1213     1  0.0000000  0.6508444  3
   1194   1193   1189   1196     1  0.0000000  1.2552000  3
   1194   1193   1205   1211     1  0.0000000  0.6508444  3
   1194   1193   1205   1206     1  0.0000000  0.6508444  3
   1194   1193   1205   1207     1  0.0000000  0.6508444  3
   1195   1193   1189   1196     1  0.0000000  1.2552000  3
   1195   1193   1205   1211     1  0.0000000  0.6508444  3
   1195   1193   1205   1206     1  0.0000000  0.6508444  3
   1195   1193   1205   1207     1  0.0000000  0.6508444  3
   1196   1199   1208   1209     1  0.0000000  0.6508444  3
   1196   1199   1208   1210     1  0.0000000  0.6508444  3
   1197   1196   1199   1208     1  0.0000000  0.6508444  3
   1197   1196   1199   1200     1  0.0000000  0.6508444  3
   1197   1196   1199   1201     1  0.0000000  0.6508444  3
   1198   1196   1199   1208     1  0.0000000  0.6508444  3
   1198   1196   1199   1200     1  0.0000000  0.6508444  3
   1198   1196   1199   1201     1  0.0000000  0.6508444  3
   1200   1199   1208   1217     1  0.0000000  1.0460000  1
   1200   1199   1208   1217     1  0.0000000  0.0000000  3
   1200   1199   1208   1209     1  0.0000000  0.6508444  3
   1200   1199   1208   1210     1  0.0000000  0.6508444  3
   1201   1199   1208   1217     1  0.0000000  1.0460000  1
   1201   1199   1208   1217     1  0.0000000  0.0000000  3
   1201   1199   1208   1209     1  0.0000000  0.6508444  3
   1201   1199   1208   1210     1  0.0000000  0.6508444  3
   1203   1202   1214   2493     1  0.0000000  1.0460000  1
   1203   1202   1214   2493     1  0.0000000  0.0000000  3
   1203   1202   1214   1215     1  0.0000000  0.6508444  3
   1203   1202   1214   1216     1  0.0000000  0.6508444  3
   1204   1202   1214   2493     1  0.0000000  1.0460000  1
   1204   1202   1214   2493     1  0.0000000  0.0000000  3
   1204   1202   1214   1215     1  0.0000000  0.6508444  3
   1204   1202   1214   1216     1  0.0000000  0.6508444  3
   1206   1205   1211   2464     1  0.0000000  1.0460000  1
   1206   1205   1211   2464     1  0.0000000  0.0000000  3
   1206   1205   1211   1212     1  0.0000000  0.6508444  3
   1206   1205   1211   1213     1  0.0000000  0.6508444  3
   1207   1205   1211   2464     1  0.0000000  1.0460000  1
   1207   1205   1211   2464     1  0.0000000  0.0000000  3
   1207   1205   1211   1212     1  0.0000000  0.6508444  3
   1207   1205   1211   1213     1  0.0000000  0.6508444  3
   1211   2464   2455   2456     1  0.0000000  1.6038667  3
   1211   2464   2455   2457     1  0.0000000  1.6038667  3
   1212   1211   2464   2455     1  0.0000000  1.6038667  3
   1213   1211   2464   2455     1  0.0000000  1.6038667  3
   1214   2493   2484   2485     1  0.0000000  1.6038667  3
   1214   2493   2484   2486     1  0.0000000  1.6038667  3
   1215   1214   2493   2484     1  0.0000000  1.6038667  3
   1216   1214   2493   2484     1  0.0000000  1.6038667  3
   1218   1219   1231   1232     1  0.0000000  0.6508444  3
   1218   1219   1231   1233     1  0.0000000  0.6508444  3
   1218   1222   1234   1235     1  0.0000000  0.6508444  3
   1218   1222   1234   1236     1  0.0000000  0.6508444  3
   1218   1225   1228   1229     1  0.0000000  0.6508444  3
   1218   1225   1228   1230     1  0.0000000  0.6508444  3
   1219   1218   1222   1223     1  0.0000000  1.2552000  3
   1219   1218   1222   1224     1  0.0000000  1.2552000  3
   1219   1218   1225   1226     1  0.0000000  1.2552000  3
   1219   1218   1225   1227     1  0.0000000  1.2552000  3
   1219   1231   1243   1244     1  0.0000000  0.6508444  3
   1219   1231   1243   1245     1  0.0000000  0.6508444  3
   1220   1219   1218   1222     1  0.0000000  1.2552000  3
   1220   1219   1218   1225     1  0.0000000  1.2552000  3
   1220   1219   1231   1243     1  0.0000000  0.6508444  3
   1220   1219   1231   1232     1  0.0000000  0.6508444  3
   1220   1219   1231   1233     1  0.0000000  0.6508444  3
   1221   1219   1218   1222     1  0.0000000  1.2552000  3
   1221   1219   1218   1225     1  0.0000000  1.2552000  3
   1221   1219   1231   1243     1  0.0000000  0.6508444  3
   1221   1219   1231   1232     1  0.0000000  0.6508444  3
   1221   1219   1231   1233     1  0.0000000  0.6508444  3
   1222   1218   1225   1226     1  0.0000000  1.2552000  3
   1222   1218   1225   1227     1  0.0000000  1.2552000  3
   1222   1234   1240   1241     1  0.0000000  0.6508444  3
   1222   1234   1240   1242     1  0.0000000  0.6508444  3
   1223   1222   1218   1225     1  0.0000000  1.2552000  3
   1223   1222   1234   1240     1  0.0000000  0.6508444  3
   1223   1222   1234   1235     1  0.0000000  0.6508444  3
   1223   1222   1234   1236     1  0.0000000  0.6508444  3
   1224   1222   1218   1225     1  0.0000000  1.2552000  3
   1224   1222   1234   1240     1  0.0000000  0.6508444  3
   1224   1222   1234   1235     1  0.0000000  0.6508444  3
   1224   1222   1234   1236     1  0.0000000  0.6508444  3
   1225   1228   1237   1238     1  0.0000000  0.6508444  3
   1225   1228   1237   1239     1  0.0000000  0.6508444  3
   1226   1225   1228   1237     1  0.0000000  0.6508444  3
   1226   1225   1228   1229     1  0.0000000  0.6508444  3
   1226   1225   1228   1230     1  0.0000000  0.6508444  3
   1227   1225   1228   1237     1  0.0000000  0.6508444  3
   1227   1225   1228   1229     1  0.0000000  0.6508444  3
   1227   1225   1228   1230     1  0.0000000  0.6508444  3
   1229   1228   1237   1246     1  0.0000000  1.0460000  1
   1229   1228   1237   1246     1  0.0000000  0.0000000  3
   1229   1228   1237   1238     1  0.0000000  0.6508444  3
   1229   1228   1237   1239     1  0.0000000  0.6508444  3
   1230   1228   1237   1246     1  0.0000000  1.0460000  1
   1230   1228   1237   1246     1  0.0000000  0.0000000  3
   1230   1228   1237   1238     1  0.0000000  0.6508444  3
   1230   1228   1237   1239     1  0.0000000  0.6508444  3
   1232   1231   1243   2551     1  0.0000000  1.0460000  1
   1232   1231   1243   2551     1  0.0000000  0.0000000  3
   1232   1231   1243   1244     1  0.0000000  0.6508444  3
   1232   1231   1243   1245     1  0.0000000  0.6508444  3
   1233   1231   1243   2551     1  0.0000000  1.0460000  1
   1233   1231   1243   2551     1  0.0000000  0.0000000  3
   1233   1231   1243   1244     1  0.0000000  0.6508444  3
   1233   1231   1243   1245     1  0.0000000  0.6508444  3
   1235   1234   1240   2522     1  0.0000000  1.0460000  1
   1235   1234   1240   2522     1  0.0000000  0.0000000  3
   1235   1234   1240   1241     1  0.0000000  0.6508444  3
   1235   1234   1240   1242     1  0.0000000  0.6508444  3
   1236   1234   1240   2522     1  0.0000000  1.0460000  1
   1236   1234   1240   2522     1  0.0000000  0.0000000  3
   1236   1234   1240   1241     1  0.0000000  0.6508444  3
   1236   1234   1240   1242     1  0.0000000  0.6508444  3
   1240   2522   2513   2514     1  0.0000000  1.6038667  3
   1240   2522   2513   2515     1  0.0000000  1.6038667  3
   1241   1240   2522   2513     1  0.0000000  1.6038667  3
   1242   1240   2522   2513     1  0.0000000  1.6038667  3
   1243   2551   2542   2543     1  0.0000000  1.6038667  3
   1243   2551   2542   2544     1  0.0000000  1.6038667  3
   1244   1243   2551   2542     1  0.0000000  1.6038667  3
   1245   1243   2551   2542     1  0.0000000  1.6038667  3
   1247   1248   1260   1261     1  0.0000000  0.6508444  3
   1247   1248   1260   1262     1  0.0000000  0.6508444  3
   1247   1251   1263   1264     1  0.0000000  0.6508444  3
   1247   1251   1263   1265     1  0.0000000  0.6508444  3
   1247   1254   1257   1258     1  0.0000000  0.6508444  3
   1247   1254   1257   1259     1  0.0000000  0.6508444  3
   1248   1247   1251   1252     1  0.0000000  1.2552000  3
   1248   1247   1251   1253     1  0.0000000  1.2552000  3
   1248   1247   1254   1255     1  0.0000000  1.2552000  3
   1248   1247   1254   1256     1  0.0000000  1.2552000  3
   1248   1260   1272   1273     1  0.0000000  0.6508444  3
   1248   1260   1272   1274     1  0.0000000  0.6508444  3
   1249   1248   1247   1251     1  0.0000000  1.2552000  3
   1249   1248   1247   1254     1  0.0000000  1.2552000  3
   1249   1248   1260   1272     1  0.0000000  0.6508444  3
   1249   1248   1260   1261     1  0.0000000  0.6508444  3
   1249   1248   1260   1262     1  0.0000000  0.6508444  3
   1250   1248   1247   1251     1  0.0000000  1.2552000  3
   1250   1248   1247   1254     1  0.0000000  1.2552000  3
   1250   1248   1260   1272     1  0.0000000  0.6508444  3
   1250   1248   1260   1261     1  0.0000000  0.6508444  3
   1250   1248   1260   1262     1  0.0000000  0.6508444  3
   1251   1247   1254   1255     1  0.0000000  1.2552000  3
   1251   1247   1254   1256     1  0.0000000  1.2552000  3
   1251   1263   1269   1270     1  0.0000000  0.6508444  3
   1251   1263   1269   1271     1  0.0000000  0.6508444  3
   1252   1251   1247   1254     1  0.0000000  1.2552000  3
   1252   1251   1263   1269     1  0.0000000  0.6508444  3
   1252   1251   1263   1264     1  0.0000000  0.6508444  3
   1252   1251   1263   1265     1  0.0000000  0.6508444  3
   1253   1251   1247   1254     1  0.0000000  1.2552000  3
   1253   1251   1263   1269     1  0.0000000  0.6508444  3
   1253   1251   1263   1264     1  0.0000000  0.6508444  3
   1253   1251   1263   1265     1  0.0000000  0.6508444  3
   1254   1257   1266   1267     1  0.0000000  0.6508444  3
   1254   1257   1266   1268     1  0.0000000  0.6508444  3
   1255   1254   1257   1266     1  0.0000000  0.6508444  3
   1255   1254   1257   1258     1  0.0000000  0.6508444  3
   1255   1254   1257   1259     1  0.0000000  0.6508444  3
   1256   1254   1257   1266     1  0.0000000  0.6508444  3
   1256   1254   1257   1258     1  0.0000000  0.6508444  3
   1256   1254   1257   1259     1  0.0000000  0.6508444  3
   1258   1257   1266   1275     1  0.0000000  1.0460000  1
   1258   1257   1266   1275     1  0.0000000  0.0000000  3
   1258   1257   1266   1267     1  0.0000000  0.6508444  3
   1258   1257   1266   1268     1  0.0000000  0.6508444  3
   1259   1257   1266   1275     1  0.0000000  1.0460000  1
   1259   1257   1266   1275     1  0.0000000  0.0000000  3
   1259   1257   1266   1267     1  0.0000000  0.6508444  3
   1259   1257   1266   1268     1  0.0000000  0.6508444  3
   1261   1260   1272   2609     1  0.0000000  1.0460000  1
   1261   1260   1272   2609     1  0.0000000  0.0000000  3
   1261   1260   1272   1273     1  0.0000000  0.6508444  3
   1261   1260   1272   1274     1  0.0000000  0.6508444  3
   1262   1260   1272   2609     1  0.0000000  1.0460000  1
   1262   1260   1272   2609     1  0.0000000  0.0000000  3
   1262   1260   1272   1273     1  0.0000000  0.6508444  3
   1262   1260   1272   1274     1  0.0000000  0.6508444  3
   1264   1263   1269   2580     1  0.0000000  1.0460000  1
   1264   1263   1269   2580     1  0.0000000  0.0000000  3
   1264   1263   1269   1270     1  0.0000000  0.6508444  3
   1264   1263   1269   1271     1  0.0000000  0.6508444  3
   1265   1263   1269   2580     1  0.0000000  1.0460000  1
   1265   1263   1269   2580     1  0.0000000  0.0000000  3
   1265   1263   1269   1270     1  0.0000000  0.6508444  3
   1265   1263   1269   1271     1  0.0000000  0.6508444  3
   1269   2580   2571   2572     1  0.0000000  1.6038667  3
   1269   2580   2571   2573     1  0.0000000  1.6038667  3
   1270   1269   2580   2571     1  0.0000000  1.6038667  3
   1271   1269   2580   2571     1  0.0000000  1.6038667  3
   1272   2609   2600   2601     1  0.0000000  1.6038667  3
   1272   2609   2600   2602     1  0.0000000  1.6038667  3
   1273   1272   2609   2600     1  0.0000000  1.6038667  3
   1274   1272   2609   2600     1  0.0000000  1.6038667  3
   1276   1277   1289   1290     1  0.0000000  0.6508444  3
   1276   1277   1289   1291     1  0.0000000  0.6508444  3
   1276   1280   1292   1293     1  0.0000000  0.6508444  3
   1276   1280   1292   1294     1  0.0000000  0.6508444  3
   1276   1283   1286   1287     1  0.0000000  0.6508444  3
   1276   1283   1286   1288     1  0.0000000  0.6508444  3
   1277   1276   1280   1281     1  0.0000000  1.2552000  3
   1277   1276   1280   1282     1  0.0000000  1.2552000  3
   1277   1276   1283   1284     1  0.0000000  1.2552000  3
   1277   1276   1283   1285     1  0.0000000  1.2552000  3
   1277   1289   1301   1302     1  0.0000000  0.6508444  3
   1277   1289   1301   1303     1  0.0000000  0.6508444  3
   1278   1277   1276   1280     1  0.0000000  1.2552000  3
   1278   1277   1276   1283     1  0.0000000  1.2552000  3
   1278   1277   1289   1301     1  0.0000000  0.6508444  3
   1278   1277   1289   1290     1  0.0000000  0.6508444  3
   1278   1277   1289   1291     1  0.0000000  0.6508444  3
   1279   1277   1276   1280     1  0.0000000  1.2552000  3
   1279   1277   1276   1283     1  0.0000000  1.2552000  3
   1279   1277   1289   1301     1  0.0000000  0.6508444  3
   1279   1277   1289   1290     1  0.0000000  0.6508444  3
   1279   1277   1289   1291     1  0.0000000  0.6508444  3
   1280   1276   1283   1284     1  0.0000000  1.2552000  3
   1280   1276   1283   1285     1  0.0000000  1.2552000  3
   1280   1292   1298   1299     1  0.0000000  0.6508444  3
   1280   1292   1298   1300     1  0.0000000  0.6508444  3
   1281   1280   1276   1283     1  0.0000000  1.2552000  3
   1281   1280   1292   1298     1  0.0000000  0.6508444  3
   1281   1280   1292   1293     1  0.0000000  0.6508444  3
   1281   1280   1292   1294     1  0.0000000  0.6508444  3
   1282   1280   1276   1283     1  0.0000000  1.2552000  3
   1282   1280   1292   1298     1  0.0000000  0.6508444  3
   1282   1280   1292   1293     1  0.0000000  0.6508444  3
   1282   1280   1292   1294     1  0.0000000  0.6508444  3
   1283   1286   1295   1296     1  0.0000000  0.6508444  3
   1283   1286   1295   1297     1  0.0000000  0.6508444  3
   1284   1283   1286   1295     1  0.0000000  0.6508444  3
   1284   1283   1286   1287     1  0.0000000  0.6508444  3
   1284   1283   1286   1288     1  0.0000000  0.6508444  3
   1285   1283   1286   1295     1  0.0000000  0.6508444  3
   1285   1283   1286   1287     1  0.0000000  0.6508444  3
   1285   1283   1286   1288     1  0.0000000  0.6508444  3
   1287   1286   1295   1304     1  0.0000000  1.0460000  1
   1287   1286   1295   1304     1  0.0000000  0.0000000  3
   1287   1286   1295   1296     1  0.0000000  0.6508444  3
   1287   1286   1295   1297     1  0.0000000  0.6508444  3
   1288   1286   1295   1304     1  0.0000000  1.0460000  1
   1288   1286   1295   1304     1  0.0000000  0.0000000  3
   1288   1286   1295   1296     1  0.0000000  0.6508444  3
   1288   1286   1295   1297     1  0.0000000  0.6508444  3
   1290   1289   1301   2667     1  0.0000000  1.0460000  1
   1290   1289   1301   2667     1  0.0000000  0.0000000  3
   1290   1289   1301   1302     1  0.0000000  0.6508444  3
   1290   1289   1301   1303     1  0.0000000  0.6508444  3
   1291   1289   1301   2667     1  0.0000000  1.0460000  1
   1291   1289   1301   2667     1  0.0000000  0.0000000  3
   1291   1289   1301   1302     1  0.0000000  0.6508444  3
   1291   1289   1301   1303     1  0.0000000  0.6508444  3
   1293   1292   1298   2638     1  0.0000000  1.0460000  1
   1293   1292   1298   2638     1  0.0000000  0.0000000  3
   1293   1292   1298   1299     1  0.0000000  0.6508444  3
   1293   1292   1298   1300     1  0.0000000  0.6508444  3
   1294   1292   1298   2638     1  0.0000000  1.0460000  1
   1294   1292   1298   2638     1  0.0000000  0.0000000  3
   1294   1292   1298   1299     1  0.0000000  0.6508444  3
   1294   1292   1298   1300     1  0.0000000  0.6508444  3
   1298   2638   2629   2630     1  0.0000000  1.6038667  3
   1298   2638   2629   2631     1  0.0000000  1.6038667  3
   1299   1298   2638   2629     1  0.0000000  1.6038667  3
   1300   1298   2638   2629     1  0.0000000  1.6038667  3
   1301   2667   2658   2659     1  0.0000000  1.6038667  3
   1301   2667   2658   2660     1  0.0000000  1.6038667  3
   1302   1301   2667   2658     1  0.0000000  1.6038667  3
   1303   1301   2667   2658     1  0.0000000  1.6038667  3
   1305   1306   1318   1319     1  0.0000000  0.6508444  3
   1305   1306   1318   1320     1  0.0000000  0.6508444  3
   1305   1309   1321   1322     1  0.0000000  0.6508444  3
   1305   1309   1321   1323     1  0.0000000  0.6508444  3
   1305   1312   1315   1316     1  0.0000000  0.6508444  3
   1305   1312   1315   1317     1  0.0000000  0.6508444  3
   1306   1305   1309   1310     1  0.0000000  1.2552000  3
   1306   1305   1309   1311     1  0.0000000  1.2552000  3
   1306   1305   1312   1313     1  0.0000000  1.2552000  3
   1306   1305   1312   1314     1  0.0000000  1.2552000  3
   1306   1318   1330   1331     1  0.0000000  0.6508444  3
   1306   1318   1330   1332     1  0.0000000  0.6508444  3
   1307   1306   1305   1309     1  0.0000000  1.2552000  3
   1307   1306   1305   1312     1  0.0000000  1.2552000  3
   1307   1306   1318   1330     1  0.0000000  0.6508444  3
   1307   1306   1318   1319     1  0.0000000  0.6508444  3
   1307   1306   1318   1320     1  0.0000000  0.6508444  3
   1308   1306   1305   1309     1  0.0000000  1.2552000  3
   1308   1306   1305   1312     1  0.0000000  1.2552000  3
   1308   1306   1318   1330     1  0.0000000  0.6508444  3
   1308   1306   1318   1319     1  0.0000000  0.6508444  3
   1308   1306   1318   1320     1  0.0000000  0.6508444  3
   1309   1305   1312   1313     1  0.0000000  1.2552000  3
   1309   1305   1312   1314     1  0.0000000  1.2552000  3
   1309   1321   1327   1328     1  0.0000000  0.6508444  3
   1309   1321   1327   1329     1  0.0000000  0.6508444  3
   1310   1309   1305   1312     1  0.0000000  1.2552000  3
   1310   1309   1321   1327     1  0.0000000  0.6508444  3
   1310   1309   1321   1322     1  0.0000000  0.6508444  3
   1310   1309   1321   1323     1  0.0000000  0.6508444  3
   1311   1309   1305   1312     1  0.0000000  1.2552000  3
   1311   1309   1321   1327     1  0.0000000  0.6508444  3
   1311   1309   1321   1322     1  0.0000000  0.6508444  3
   1311   1309   1321   1323     1  0.0000000  0.6508444  3
   1312   1315   1324   1325     1  0.0000000  0.6508444  3
   1312   1315   1324   1326     1  0.0000000  0.6508444  3
   1313   1312   1315   1324     1  0.0000000  0.6508444  3
   1313   1312   1315   1316     1  0.0000000  0.6508444  3
   1313   1312   1315   1317     1  0.0000000  0.6508444  3
   1314   1312   1315   1324     1  0.0000000  0.6508444  3
   1314   1312   1315   1316     1  0.0000000  0.6508444  3
   1314   1312   1315   1317     1  0.0000000  0.6508444  3
   1316   1315   1324   1333     1  0.0000000  1.0460000  1
   1316   1315   1324   1333     1  0.0000000  0.0000000  3
   1316   1315   1324   1325     1  0.0000000  0.6508444  3
   1316   1315   1324   1326     1  0.0000000  0.6508444  3
   1317   1315   1324   1333     1  0.0000000  1.0460000  1
   1317   1315   1324   1333     1  0.0000000  0.0000000  3
   1317   1315   1324   1325     1  0.0000000  0.6508444  3
   1317   1315   1324   1326     1  0.0000000  0.6508444  3
   1319   1318   1330   2725     1  0.0000000  1.0460000  1
   1319   1318   1330   2725     1  0.0000000  0.0000000  3
   1319   1318   1330   1331     1  0.0000000  0.6508444  3
   1319   1318   1330   1332     1  0.0000000  0.6508444  3
   1320   1318   1330   2725     1  0.0000000  1.0460000  1
   1320   1318   1330   2725     1  0.0000000  0.0000000  3
   1320   1318   1330   1331     1  0.0000000  0.6508444  3
   1320   1318   1330   1332     1  0.0000000  0.6508444  3
   1322   1321   1327   2696     1  0.0000000  1.0460000  1
   1322   1321   1327   2696     1  0.0000000  0.0000000  3
   1322   1321   1327   1328     1  0.0000000  0.6508444  3
   1322   1321   1327   1329     1  0.0000000  0.6508444  3
   1323   1321   1327   2696     1  0.0000000  1.0460000  1
   1323   1321   1327   2696     1  0.0000000  0.0000000  3
   1323   1321   1327   1328     1  0.0000000  0.6508444  3
   1323   1321   1327   1329     1  0.0000000  0.6508444  3
   1327   2696   2687   2688     1  0.0000000  1.6038667  3
   1327   2696   2687   2689     1  0.0000000  1.6038667  3
   1328   1327   2696   2687     1  0.0000000  1.6038667  3
   1329   1327   2696   2687     1  0.0000000  1.6038667  3
   1330   2725   2716   2717     1  0.0000000  1.6038667  3
   1330   2725   2716   2718     1  0.0000000  1.6038667  3
   1331   1330   2725   2716     1  0.0000000  1.6038667  3
   1332   1330   2725   2716     1  0.0000000  1.6038667  3
   1334   1335   1347   1348     1  0.0000000  0.6508444  3
   1334   1335   1347   1349     1  0.0000000  0.6508444  3
   1334   1338   1350   1351     1  0.0000000  0.6508444  3
   1334   1338   1350   1352     1  0.0000000  0.6508444  3
   1334   1341   1344   1345     1  0.0000000  0.6508444  3
   1334   1341   1344   1346     1  0.0000000  0.6508444  3
   1335   1334   1338   1339     1  0.0000000  1.2552000  3
   1335   1334   1338   1340     1  0.0000000  1.2552000  3
   1335   1334   1341   1342     1  0.0000000  1.2552000  3
   1335   1334   1341   1343     1  0.0000000  1.2552000  3
   1335   1347   1359   1360     1  0.0000000  0.6508444  3
   1335   1347   1359   1361     1  0.0000000  0.6508444  3
   1336   1335   1334   1338     1  0.0000000  1.2552000  3
   1336   1335   1334   1341     1  0.0000000  1.2552000  3
   1336   1335   1347   1359     1  0.0000000  0.6508444  3
   1336   1335   1347   1348     1  0.0000000  0.6508444  3
   1336   1335   1347   1349     1  0.0000000  0.6508444  3
   1337   1335   1334   1338     1  0.0000000  1.2552000  3
   1337   1335   1334   1341     1  0.0000000  1.2552000  3
   1337   1335   1347   1359     1  0.0000000  0.6508444  3
   1337   1335   1347   1348     1  0.0000000  0.6508444  3
   1337   1335   1347   1349     1  0.0000000  0.6508444  3
   1338   1334   1341   1342     1  0.0000000  1.2552000  3
   1338   1334   1341   1343     1  0.0000000  1.2552000  3
   1338   1350   1356   1357     1  0.0000000  0.6508444  3
   1338   1350   1356   1358     1  0.0000000  0.6508444  3
   1339   1338   1334   1341     1  0.0000000  1.2552000  3
   1339   1338   1350   1356     1  0.0000000  0.6508444  3
   1339   1338   1350   1351     1  0.0000000  0.6508444  3
   1339   1338   1350   1352     1  0.0000000  0.6508444  3
   1340   1338   1334   1341     1  0.0000000  1.2552000  3
   1340   1338   1350   1356     1  0.0000000  0.6508444  3
   1340   1338   1350   1351     1  0.0000000  0.6508444  3
   1340   1338   1350   1352     1  0.0000000  0.6508444  3
   1341   1344   1353   1354     1  0.0000000  0.6508444  3
   1341   1344   1353   1355     1  0.0000000  0.6508444  3
   1342   1341   1344   1353     1  0.0000000  0.6508444  3
   1342   1341   1344   1345     1  0.0000000  0.6508444  3
   1342   1341   1344   1346     1  0.0000000  0.6508444  3
   1343   1341   1344   1353     1  0.0000000  0.6508444  3
   1343   1341   1344   1345     1  0.0000000  0.6508444  3
   1343   1341   1344   1346     1  0.0000000  0.6508444  3
   1345   1344   1353   1362     1  0.0000000  1.0460000  1
   1345   1344   1353   1362     1  0.0000000  0.0000000  3
   1345   1344   1353   1354     1  0.0000000  0.6508444  3
   1345   1344   1353   1355     1  0.0000000  0.6508444  3
   1346   1344   1353   1362     1  0.0000000  1.0460000  1
   1346   1344   1353   1362     1  0.0000000  0.0000000  3
   1346   1344   1353   1354     1  0.0000000  0.6508444  3
   1346   1344   1353   1355     1  0.0000000  0.6508444  3
   1348   1347   1359   2783     1  0.0000000  1.0460000  1
   1348   1347   1359   2783     1  0.0000000  0.0000000  3
   1348   1347   1359   1360     1  0.0000000  0.6508444  3
   1348   1347   1359   1361     1  0.0000000  0.6508444  3
   1349   1347   1359   2783     1  0.0000000  1.0460000  1
   1349   1347   1359   2783     1  0.0000000  0.0000000  3
   1349   1347   1359   1360     1  0.0000000  0.6508444  3
   1349   1347   1359   1361     1  0.0000000  0.6508444  3
   1351   1350   1356   2754     1  0.0000000  1.0460000  1
   1351   1350   1356   2754     1  0.0000000  0.0000000  3
   1351   1350   1356   1357     1  0.0000000  0.6508444  3
   1351   1350   1356   1358     1  0.0000000  0.6508444  3
   1352   1350   1356   2754     1  0.0000000  1.0460000  1
   1352   1350   1356   2754     1  0.0000000  0.0000000  3
   1352   1350   1356   1357     1  0.0000000  0.6508444  3
   1352   1350   1356   1358     1  0.0000000  0.6508444  3
   1356   2754   2745   2746     1  0.0000000  1.6038667  3
   1356   2754   2745   2747     1  0.0000000  1.6038667  3
   1357   1356   2754   2745     1  0.0000000  1.6038667  3
   1358   1356   2754   2745     1  0.0000000  1.6038667  3
   1359   2783   2774   2775     1  0.0000000  1.6038667  3
   1359   2783   2774   2776     1  0.0000000  1.6038667  3
   1360   1359   2783   2774     1  0.0000000  1.6038667  3
   1361   1359   2783   2774     1  0.0000000  1.6038667  3
   1363   1364   1376   1377     1  0.0000000  0.6508444  3
   1363   1364   1376   1378     1  0.0000000  0.6508444  3
   1363   1367   1379   1380     1  0.0000000  0.6508444  3
   1363   1367   1379   1381     1  0.0000000  0.6508444  3
   1363   1370   1373   1374     1  0.0000000  0.6508444  3
   1363   1370   1373   1375     1  0.0000000  0.6508444  3
   1364   1363   1367   1368     1  0.0000000  1.2552000  3
   1364   1363   1367   1369     1  0.0000000  1.2552000  3
   1364   1363   1370   1371     1  0.0000000  1.2552000  3
   1364   1363   1370   1372     1  0.0000000  1.2552000  3
   1364   1376   1388   1389     1  0.0000000  0.6508444  3
   1364   1376   1388   1390     1  0.0000000  0.6508444  3
   1365   1364   1363   1367     1  0.0000000  1.2552000  3
   1365   1364   1363   1370     1  0.0000000  1.2552000  3
   1365   1364   1376   1388     1  0.0000000  0.6508444  3
   1365   1364   1376   1377     1  0.0000000  0.6508444  3
   1365   1364   1376   1378     1  0.0000000  0.6508444  3
   1366   1364   1363   1367     1  0.0000000  1.2552000  3
   1366   1364   1363   1370     1  0.0000000  1.2552000  3
   1366   1364   1376   1388     1  0.0000000  0.6508444  3
   1366   1364   1376   1377     1  0.0000000  0.6508444  3
   1366   1364   1376   1378     1  0.0000000  0.6508444  3
   1367   1363   1370   1371     1  0.0000000  1.2552000  3
   1367   1363   1370   1372     1  0.0000000  1.2552000  3
   1367   1379   1385   1386     1  0.0000000  0.6508444  3
   1367   1379   1385   1387     1  0.0000000  0.6508444  3
   1368   1367   1363   1370     1  0.0000000  1.2552000  3
   1368   1367   1379   1385     1  0.0000000  0.6508444  3
   1368   1367   1379   1380     1  0.0000000  0.6508444  3
   1368   1367   1379   1381     1  0.0000000  0.6508444  3
   1369   1367   1363   1370     1  0.0000000  1.2552000  3
   1369   1367   1379   1385     1  0.0000000  0.6508444  3
   1369   1367   1379   1380     1  0.0000000  0.6508444  3
   1369   1367   1379   1381     1  0.0000000  0.6508444  3
   1370   1373   1382   1383     1  0.0000000  0.6508444  3
   1370   1373   1382   1384     1  0.0000000  0.6508444  3
   1371   1370   1373   1382     1  0.0000000  0.6508444  3
   1371   1370   1373   1374     1  0.0000000  0.6508444  3
   1371   1370   1373   1375     1  0.0000000  0.6508444  3
   1372   1370   1373   1382     1  0.0000000  0.6508444  3
   1372   1370   1373   1374     1  0.0000000  0.6508444  3
   1372   1370   1373   1375     1  0.0000000  0.6508444  3
   1374   1373   1382   1391     1  0.0000000  1.0460000  1
   1374   1373   1382   1391     1  0.0000000  0.0000000  3
   1374   1373   1382   1383     1  0.0000000  0.6508444  3
   1374   1373   1382   1384     1  0.0000000  0.6508444  3
   1375   1373   1382   1391     1  0.0000000  1.0460000  1
   1375   1373   1382   1391     1  0.0000000  0.0000000  3
   1375   1373   1382   1383     1  0.0000000  0.6508444  3
   1375   1373   1382   1384     1  0.0000000  0.6508444  3
   1377   1376   1388   2841     1  0.0000000  1.0460000  1
   1377   1376   1388   2841     1  0.0000000  0.0000000  3
   1377   1376   1388   1389     1  0.0000000  0.6508444  3
   1377   1376   1388   1390     1  0.0000000  0.6508444  3
   1378   1376   1388   2841     1  0.0000000  1.0460000  1
   1378   1376   1388   2841     1  0.0000000  0.0000000  3
   1378   1376   1388   1389     1  0.0000000  0.6508444  3
   1378   1376   1388   1390     1  0.0000000  0.6508444  3
   1380   1379   1385   2812     1  0.0000000  1.0460000  1
   1380   1379   1385   2812     1  0.0000000  0.0000000  3
   1380   1379   1385   1386     1  0.0000000  0.6508444  3
   1380   1379   1385   1387     1  0.0000000  0.6508444  3
   1381   1379   1385   2812     1  0.0000000  1.0460000  1
   1381   1379   1385   2812     1  0.0000000  0.0000000  3
   1381   1379   1385   1386     1  0.0000000  0.6508444  3
   1381   1379   1385   1387     1  0.0000000  0.6508444  3
   1385   2812   2803   2804     1  0.0000000  1.6038667  3
   1385   2812   2803   2805     1  0.0000000  1.6038667  3
   1386   1385   2812   2803     1  0.0000000  1.6038667  3
   1387   1385   2812   2803     1  0.0000000  1.6038667  3
   1388   2841   2832   2833     1  0.0000000  1.6038667  3
   1388   2841   2832   2834     1  0.0000000  1.6038667  3
   1389   1388   2841   2832     1  0.0000000  1.6038667  3
   1390   1388   2841   2832     1  0.0000000  1.6038667  3
   1392   1393   1405   1406     1  0.0000000  0.6508444  3
   1392   1393   1405   1407     1  0.0000000  0.6508444  3
   1392   1396   1408   1409     1  0.0000000  0.6508444  3
   1392   1396   1408   1410     1  0.0000000  0.6508444  3
   1392   1399   1402   1403     1  0.0000000  0.6508444  3
   1392   1399   1402   1404     1  0.0000000  0.6508444  3
   1393   1392   1396   1397     1  0.0000000  1.2552000  3
   1393   1392   1396   1398     1  0.0000000  1.2552000  3
   1393   1392   1399   1400     1  0.0000000  1.2552000  3
   1393   1392   1399   1401     1  0.0000000  1.2552000  3
   1393   1405   1417   1418     1  0.0000000  0.6508444  3
   1393   1405   1417   1419     1  0.0000000  0.6508444  3
   1394   1393   1392   1396     1  0.0000000  1.2552000  3
   1394   1393   1392   1399     1  0.0000000  1.2552000  3
   1394   1393   1405   1417     1  0.0000000  0.6508444  3
   1394   1393   1405   1406     1  0.0000000  0.6508444  3
   1394   1393   1405   1407     1  0.0000000  0.6508444  3
   1395   1393   1392   1396     1  0.0000000  1.2552000  3
   1395   1393   1392   1399     1  0.0000000  1.2552000  3
   1395   1393   1405   1417     1  0.0000000  0.6508444  3
   1395   1393   1405   1406     1  0.0000000  0.6508444  3
   1395   1393   1405   1407     1  0.0000000  0.6508444  3
   1396   1392   1399   1400     1  0.0000000  1.2552000  3
   1396   1392   1399   1401     1  0.0000000  1.2552000  3
   1396   1408   1414   1415     1  0.0000000  0.6508444  3
   1396   1408   1414   1416     1  0.0000000  0.6508444  3
   1397   1396   1392   1399     1  0.0000000  1.2552000  3
   1397   1396   1408   1414     1  0.0000000  0.6508444  3
   1397   1396   1408   1409     1  0.0000000  0.6508444  3
   1397   1396   1408   1410     1  0.0000000  0.6508444  3
   1398   1396   1392   1399     1  0.0000000  1.2552000  3
   1398   1396   1408   1414     1  0.0000000  0.6508444  3
   1398   1396   1408   1409     1  0.0000000  0.6508444  3
   1398   1396   1408   1410     1  0.0000000  0.6508444  3
   1399   1402   1411   1412     1  0.0000000  0.6508444  3
   1399   1402   1411   1413     1  0.0000000  0.6508444  3
   1400   1399   1402   1411     1  0.0000000  0.6508444  3
   1400   1399   1402   1403     1  0.0000000  0.6508444  3
   1400   1399   1402   1404     1  0.0000000  0.6508444  3
   1401   1399   1402   1411     1  0.0000000  0.6508444  3
   1401   1399   1402   1403     1  0.0000000  0.6508444  3
   1401   1399   1402   1404     1  0.0000000  0.6508444  3
   1403   1402   1411   1420     1  0.0000000  1.0460000  1
   1403   1402   1411   1420     1  0.0000000  0.0000000  3
   1403   1402   1411   1412     1  0.0000000  0.6508444  3
   1403   1402   1411   1413     1  0.0000000  0.6508444  3
   1404   1402   1411   1420     1  0.0000000  1.0460000  1
   1404   1402   1411   1420     1  0.0000000  0.0000000  3
   1404   1402   1411   1412     1  0.0000000  0.6508444  3
   1404   1402   1411   1413     1  0.0000000  0.6508444  3
   1406   1405   1417   2899     1  0.0000000  1.0460000  1
   1406   1405   1417   2899     1  0.0000000  0.0000000  3
   1406   1405   1417   1418     1  0.0000000  0.6508444  3
   1406   1405   1417   1419     1  0.0000000  0.6508444  3
   1407   1405   1417   2899     1  0.0000000  1.0460000  1
   1407   1405   1417   2899     1  0.0000000  0.0000000  3
   1407   1405   1417   1418     1  0.0000000  0.6508444  3
   1407   1405   1417   1419     1  0.0000000  0.6508444  3
   1409   1408   1414   2870     1  0.0000000  1.0460000  1
   1409   1408   1414   2870     1  0.0000000  0.0000000  3
   1409   1408   1414   1415     1  0.0000000  0.6508444  3
   1409   1408   1414   1416     1  0.0000000  0.6508444  3
   1410   1408   1414   2870     1  0.0000000  1.0460000  1
   1410   1408   1414   2870     1  0.0000000  0.0000000  3
   1410   1408   1414   1415     1  0.0000000  0.6508444  3
   1410   1408   1414   1416     1  0.0000000  0.6508444  3
   1414   2870   2861   2862     1  0.0000000  1.6038667  3
   1414   2870   2861   2863     1  0.0000000  1.6038667  3
   1415   1414   2870   2861     1  0.0000000  1.6038667  3
   1416   1414   2870   2861     1  0.0000000  1.6038667  3
   1417   2899   2890   2891     1  0.0000000  1.6038667  3
   1417   2899   2890   2892     1  0.0000000  1.6038667  3
   1418   1417   2899   2890     1  0.0000000  1.6038667  3
   1419   1417   2899   2890     1  0.0000000  1.6038667  3
   1421   1422   1434   1435     1  0.0000000  0.6508444  3
   1421   1422   1434   1436     1  0.0000000  0.6508444  3
   1421   1425   1437   1438     1  0.0000000  0.6508444  3
   1421   1425   1437   1439     1  0.0000000  0.6508444  3
   1421   1428   1431   1432     1  0.0000000  0.6508444  3
   1421   1428   1431   1433     1  0.0000000  0.6508444  3
   1422   1421   1425   1426     1  0.0000000  1.2552000  3
   1422   1421   1425   1427     1  0.0000000  1.2552000  3
   1422   1421   1428   1429     1  0.0000000  1.2552000  3
   1422   1421   1428   1430     1  0.0000000  1.2552000  3
   1422   1434   1446   1447     1  0.0000000  0.6508444  3
   1422   1434   1446   1448     1  0.0000000  0.6508444  3
   1423   1422   1421   1425     1  0.0000000  1.2552000  3
   1423   1422   1421   1428     1  0.0000000  1.2552000  3
   1423   1422   1434   1446     1  0.0000000  0.6508444  3
   1423   1422   1434   1435     1  0.0000000  0.6508444  3
   1423   1422   1434   1436     1  0.0000000  0.6508444  3
   1424   1422   1421   1425     1  0.0000000  1.2552000  3
   1424   1422   1421   1428     1  0.0000000  1.2552000  3
   1424   1422   1434   1446     1  0.0000000  0.6508444  3
   1424   1422   1434   1435     1  0.0000000  0.6508444  3
   1424   1422   1434   1436     1  0.0000000  0.6508444  3
   1425   1421   1428   1429     1  0.0000000  1.2552000  3
   1425   1421   1428   1430     1  0.0000000  1.2552000  3
   1425   1437   1443   1444     1  0.0000000  0.6508444  3
   1425   1437   1443   1445     1  0.0000000  0.6508444  3
   1426   1425   1421   1428     1  0.0000000  1.2552000  3
   1426   1425   1437   1443     1  0.0000000  0.6508444  3
   1426   1425   1437   1438     1  0.0000000  0.6508444  3
   1426   1425   1437   1439     1  0.0000000  0.6508444  3
   1427   1425   1421   1428     1  0.0000000  1.2552000  3
   1427   1425   1437   1443     1  0.0000000  0.6508444  3
   1427   1425   1437   1438     1  0.0000000  0.6508444  3
   1427   1425   1437   1439     1  0.0000000  0.6508444  3
   1428   1431   1440   1441     1  0.0000000  0.6508444  3
   1428   1431   1440   1442     1  0.0000000  0.6508444  3
   1429   1428   1431   1440     1  0.0000000  0.6508444  3
   1429   1428   1431   1432     1  0.0000000  0.6508444  3
   1429   1428   1431   1433     1  0.0000000  0.6508444  3
   1430   1428   1431   1440     1  0.0000000  0.6508444  3
   1430   1428   1431   1432     1  0.0000000  0.6508444  3
   1430   1428   1431   1433     1  0.0000000  0.6508444  3
   1432   1431   1440   1449     1  0.0000000  1.0460000  1
   1432   1431   1440   1449     1  0.0000000  0.0000000  3
   1432   1431   1440   1441     1  0.0000000  0.6508444  3
   1432   1431   1440   1442     1  0.0000000  0.6508444  3
   1433   1431   1440   1449     1  0.0000000  1.0460000  1
   1433   1431   1440   1449     1  0.0000000  0.0000000  3
   1433   1431   1440   1441     1  0.0000000  0.6508444  3
   1433   1431   1440   1442     1  0.0000000  0.6508444  3
   1435   1434   1446   2957     1  0.0000000  1.0460000  1
   1435   1434   1446   2957     1  0.0000000  0.0000000  3
   1435   1434   1446   1447     1  0.0000000  0.6508444  3
   1435   1434   1446   1448     1  0.0000000  0.6508444  3
   1436   1434   1446   2957     1  0.0000000  1.0460000  1
   1436   1434   1446   2957     1  0.0000000  0.0000000  3
   1436   1434   1446   1447     1  0.0000000  0.6508444  3
   1436   1434   1446   1448     1  0.0000000  0.6508444  3
   1438   1437   1443   2928     1  0.0000000  1.0460000  1
   1438   1437   1443   2928     1  0.0000000  0.0000000  3
   1438   1437   1443   1444     1  0.0000000  0.6508444  3
   1438   1437   1443   1445     1  0.0000000  0.6508444  3
   1439   1437   1443   2928     1  0.0000000  1.0460000  1
   1439   1437   1443   2928     1  0.0000000  0.0000000  3
   1439   1437   1443   1444     1  0.0000000  0.6508444  3
   1439   1437   1443   1445     1  0.0000000  0.6508444  3
   1443   2928   2919   2920     1  0.0000000  1.6038667  3
   1443   2928   2919   2921     1  0.0000000  1.6038667  3
   1444   1443   2928   2919     1  0.0000000  1.6038667  3
   1445   1443   2928   2919     1  0.0000000  1.6038667  3
   1446   2957   2948   2949     1  0.0000000  1.6038667  3
   1446   2957   2948   2950     1  0.0000000  1.6038667  3
   1447   1446   2957   2948     1  0.0000000  1.6038667  3
   1448   1446   2957   2948     1  0.0000000  1.6038667  3
   1450   1451   1463   1464     1  0.0000000  0.6508444  3
   1450   1451   1463   1465     1  0.0000000  0.6508444  3
   1450   1454   1466   1467     1  0.0000000  0.6508444  3
   1450   1454   1466   1468     1  0.0000000  0.6508444  3
   1450   1457   1460   1461     1  0.0000000  0.6508444  3
   1450   1457   1460   1462     1  0.0000000  0.6508444  3
   1451   1450   1454   1455     1  0.0000000  1.2552000  3
   1451   1450   1454   1456     1  0.0000000  1.2552000  3
   1451   1450   1457   1458     1  0.0000000  1.2552000  3
   1451   1450   1457   1459     1  0.0000000  1.2552000  3
   1451   1463   1475   1476     1  0.0000000  0.6508444  3
   1451   1463   1475   1477     1  0.0000000  0.6508444  3
   1452   1451   1450   1454     1  0.0000000  1.2552000  3
   1452   1451   1450   1457     1  0.0000000  1.2552000  3
   1452   1451   1463   1475     1  0.0000000  0.6508444  3
   1452   1451   1463   1464     1  0.0000000  0.6508444  3
   1452   1451   1463   1465     1  0.0000000  0.6508444  3
   1453   1451   1450   1454     1  0.0000000  1.2552000  3
   1453   1451   1450   1457     1  0.0000000  1.2552000  3
   1453   1451   1463   1475     1  0.0000000  0.6508444  3
   1453   1451   1463   1464     1  0.0000000  0.6508444  3
   1453   1451   1463   1465     1  0.0000000  0.6508444  3
   1454   1450   1457   1458     1  0.0000000  1.2552000  3
   1454   1450   1457   1459     1  0.0000000  1.2552000  3
   1454   1466   1472   1473     1  0.0000000  0.6508444  3
   1454   1466   1472   1474     1  0.0000000  0.6508444  3
   1455   1454   1450   1457     1  0.0000000  1.2552000  3
   1455   1454   1466   1472     1  0.0000000  0.6508444  3
   1455   1454   1466   1467     1  0.0000000  0.6508444  3
   1455   1454   1466   1468     1  0.0000000  0.6508444  3
   1456   1454   1450   1457     1  0.0000000  1.2552000  3
   1456   1454   1466   1472     1  0.0000000  0.6508444  3
   1456   1454   1466   1467     1  0.0000000  0.6508444  3
   1456   1454   1466   1468     1  0.0000000  0.6508444  3
   1457   1460   1469   1470     1  0.0000000  0.6508444  3
   1457   1460   1469   1471     1  0.0000000  0.6508444  3
   1458   1457   1460   1469     1  0.0000000  0.6508444  3
   1458   1457   1460   1461     1  0.0000000  0.6508444  3
   1458   1457   1460   1462     1  0.0000000  0.6508444  3
   1459   1457   1460   1469     1  0.0000000  0.6508444  3
   1459   1457   1460   1461     1  0.0000000  0.6508444  3
   1459   1457   1460   1462     1  0.0000000  0.6508444  3
   1461   1460   1469   1478     1  0.0000000  1.0460000  1
   1461   1460   1469   1478     1  0.0000000  0.0000000  3
   1461   1460   1469   1470     1  0.0000000  0.6508444  3
   1461   1460   1469   1471     1  0.0000000  0.6508444  3
   1462   1460   1469   1478     1  0.0000000  1.0460000  1
   1462   1460   1469   1478     1  0.0000000  0.0000000  3
   1462   1460   1469   1470     1  0.0000000  0.6508444  3
   1462   1460   1469   1471     1  0.0000000  0.6508444  3
   1464   1463   1475   3015     1  0.0000000  1.0460000  1
   1464   1463   1475   3015     1  0.0000000  0.0000000  3
   1464   1463   1475   1476     1  0.0000000  0.6508444  3
   1464   1463   1475   1477     1  0.0000000  0.6508444  3
   1465   1463   1475   3015     1  0.0000000  1.0460000  1
   1465   1463   1475   3015     1  0.0000000  0.0000000  3
   1465   1463   1475   1476     1  0.0000000  0.6508444  3
   1465   1463   1475   1477     1  0.0000000  0.6508444  3
   1467   1466   1472   2986     1  0.0000000  1.0460000  1
   1467   1466   1472   2986     1  0.0000000  0.0000000  3
   1467   1466   1472   1473     1  0.0000000  0.6508444  3
   1467   1466   1472   1474     1  0.0000000  0.6508444  3
   1468   1466   1472   2986     1  0.0000000  1.0460000  1
   1468   1466   1472   2986     1  0.0000000  0.0000000  3
   1468   1466   1472   1473     1  0.0000000  0.6508444  3
   1468   1466   1472   1474     1  0.0000000  0.6508444  3
   1472   2986   2977   2978     1  0.0000000  1.6038667  3
   1472   2986   2977   2979     1  0.0000000  1.6038667  3
   1473   1472   2986   2977     1  0.0000000  1.6038667  3
   1474   1472   2986   2977     1  0.0000000  1.6038667  3
   1475   3015   3006   3007     1  0.0000000  1.6038667  3
   1475   3015   3006   3008     1  0.0000000  1.6038667  3
   1476   1475   3015   3006     1  0.0000000  1.6038667  3
   1477   1475   3015   3006     1  0.0000000  1.6038667  3
   1479   1480   1492   1493     1  0.0000000  0.6508444  3
   1479   1480   1492   1494     1  0.0000000  0.6508444  3
   1479   1483   1495   1496     1  0.0000000  0.6508444  3
   1479   1483   1495   1497     1  0.0000000  0.6508444  3
   1479   1486   1489   1490     1  0.0000000  0.6508444  3
   1479   1486   1489   1491     1  0.0000000  0.6508444  3
   1480   1479   1483   1484     1  0.0000000  1.2552000  3
   1480   1479   1483   1485     1  0.0000000  1.2552000  3
   1480   1479   1486   1487     1  0.0000000  1.2552000  3
   1480   1479   1486   1488     1  0.0000000  1.2552000  3
   1480   1492   1504   1505     1  0.0000000  0.6508444  3
   1480   1492   1504   1506     1  0.0000000  0.6508444  3
   1481   1480   1479   1483     1  0.0000000  1.2552000  3
   1481   1480   1479   1486     1  0.0000000  1.2552000  3
   1481   1480   1492   1504     1  0.0000000  0.6508444  3
   1481   1480   1492   1493     1  0.0000000  0.6508444  3
   1481   1480   1492   1494     1  0.0000000  0.6508444  3
   1482   1480   1479   1483     1  0.0000000  1.2552000  3
   1482   1480   1479   1486     1  0.0000000  1.2552000  3
   1482   1480   1492   1504     1  0.0000000  0.6508444  3
   1482   1480   1492   1493     1  0.0000000  0.6508444  3
   1482   1480   1492   1494     1  0.0000000  0.6508444  3
   1483   1479   1486   1487     1  0.0000000  1.2552000  3
   1483   1479   1486   1488     1  0.0000000  1.2552000  3
   1483   1495   1501   1502     1  0.0000000  0.6508444  3
   1483   1495   1501   1503     1  0.0000000  0.6508444  3
   1484   1483   1479   1486     1  0.0000000  1.2552000  3
   1484   1483   1495   1501     1  0.0000000  0.6508444  3
   1484   1483   1495   1496     1  0.0000000  0.6508444  3
   1484   1483   1495   1497     1  0.0000000  0.6508444  3
   1485   1483   1479   1486     1  0.0000000  1.2552000  3
   1485   1483   1495   1501     1  0.0000000  0.6508444  3
   1485   1483   1495   1496     1  0.0000000  0.6508444  3
   1485   1483   1495   1497     1  0.0000000  0.6508444  3
   1486   1489   1498   1499     1  0.0000000  0.6508444  3
   1486   1489   1498   1500     1  0.0000000  0.6508444  3
   1487   1486   1489   1498     1  0.0000000  0.6508444  3
   1487   1486   1489   1490     1  0.0000000  0.6508444  3
   1487   1486   1489   1491     1  0.0000000  0.6508444  3
   1488   1486   1489   1498     1  0.0000000  0.6508444  3
   1488   1486   1489   1490     1  0.0000000  0.6508444  3
   1488   1486   1489   1491     1  0.0000000  0.6508444  3
   1490   1489   1498   1507     1  0.0000000  1.0460000  1
   1490   1489   1498   1507     1  0.0000000  0.0000000  3
   1490   1489   1498   1499     1  0.0000000  0.6508444  3
   1490   1489   1498   1500     1  0.0000000  0.6508444  3
   1491   1489   1498   1507     1  0.0000000  1.0460000  1
   1491   1489   1498   1507     1  0.0000000  0.0000000  3
   1491   1489   1498   1499     1  0.0000000  0.6508444  3
   1491   1489   1498   1500     1  0.0000000  0.6508444  3
   1493   1492   1504   3073     1  0.0000000  1.0460000  1
   1493   1492   1504   3073     1  0.0000000  0.0000000  3
   1493   1492   1504   1505     1  0.0000000  0.6508444  3
   1493   1492   1504   1506     1  0.0000000  0.6508444  3
   1494   1492   1504   3073     1  0.0000000  1.0460000  1
   1494   1492   1504   3073     1  0.0000000  0.0000000  3
   1494   1492   1504   1505     1  0.0000000  0.6508444  3
   1494   1492   1504   1506     1  0.0000000  0.6508444  3
   1496   1495   1501   3044     1  0.0000000  1.0460000  1
   1496   1495   1501   3044     1  0.0000000  0.0000000  3
   1496   1495   1501   1502     1  0.0000000  0.6508444  3
   1496   1495   1501   1503     1  0.0000000  0.6508444  3
   1497   1495   1501   3044     1  0.0000000  1.0460000  1
   1497   1495   1501   3044     1  0.0000000  0.0000000  3
   1497   1495   1501   1502     1  0.0000000  0.6508444  3
   1497   1495   1501   1503     1  0.0000000  0.6508444  3
   1501   3044   3035   3036     1  0.0000000  1.6038667  3
   1501   3044   3035   3037     1  0.0000000  1.6038667  3
   1502   1501   3044   3035     1  0.0000000  1.6038667  3
   1503   1501   3044   3035     1  0.0000000  1.6038667  3
   1504   3073   3064   3065     1  0.0000000  1.6038667  3
   1504   3073   3064   3066     1  0.0000000  1.6038667  3
   1505   1504   3073   3064     1  0.0000000  1.6038667  3
   1506   1504   3073   3064     1  0.0000000  1.6038667  3
   1508   1509   1521   1522     1  0.0000000  0.6508444  3
   1508   1509   1521   1523     1  0.0000000  0.6508444  3
   1508   1512   1524   1525     1  0.0000000  0.6508444  3
   1508   1512   1524   1526     1  0.0000000  0.6508444  3
   1508   1515   1518   1519     1  0.0000000  0.6508444  3
   1508   1515   1518   1520     1  0.0000000  0.6508444  3
   1509   1508   1512   1513     1  0.0000000  1.2552000  3
   1509   1508   1512   1514     1  0.0000000  1.2552000  3
   1509   1508   1515   1516     1  0.0000000  1.2552000  3
   1509   1508   1515   1517     1  0.0000000  1.2552000  3
   1509   1521   1533   1534     1  0.0000000  0.6508444  3
   1509   1521   1533   1535     1  0.0000000  0.6508444  3
   1510   1509   1508   1512     1  0.0000000  1.2552000  3
   1510   1509   1508   1515     1  0.0000000  1.2552000  3
   1510   1509   1521   1533     1  0.0000000  0.6508444  3
   1510   1509   1521   1522     1  0.0000000  0.6508444  3
   1510   1509   1521   1523     1  0.0000000  0.6508444  3
   1511   1509   1508   1512     1  0.0000000  1.2552000  3
   1511   1509   1508   1515     1  0.0000000  1.2552000  3
   1511   1509   1521   1533     1  0.0000000  0.6508444  3
   1511   1509   1521   1522     1  0.0000000  0.6508444  3
   1511   1509   1521   1523     1  0.0000000  0.6508444  3
   1512   1508   1515   1516     1  0.0000000  1.2552000  3
   1512   1508   1515   1517     1  0.0000000  1.2552000  3
   1512   1524   1530   1531     1  0.0000000  0.6508444  3
   1512   1524   1530   1532     1  0.0000000  0.6508444  3
   1513   1512   1508   1515     1  0.0000000  1.2552000  3
   1513   1512   1524   1530     1  0.0000000  0.6508444  3
   1513   1512   1524   1525     1  0.0000000  0.6508444  3
   1513   1512   1524   1526     1  0.0000000  0.6508444  3
   1514   1512   1508   1515     1  0.0000000  1.2552000  3
   1514   1512   1524   1530     1  0.0000000  0.6508444  3
   1514   1512   1524   1525     1  0.0000000  0.6508444  3
   1514   1512   1524   1526     1  0.0000000  0.6508444  3
   1515   1518   1527   1528     1  0.0000000  0.6508444  3
   1515   1518   1527   1529     1  0.0000000  0.6508444  3
   1516   1515   1518   1527     1  0.0000000  0.6508444  3
   1516   1515   1518   1519     1  0.0000000  0.6508444  3
   1516   1515   1518   1520     1  0.0000000  0.6508444  3
   1517   1515   1518   1527     1  0.0000000  0.6508444  3
   1517   1515   1518   1519     1  0.0000000  0.6508444  3
   1517   1515   1518   1520     1  0.0000000  0.6508444  3
   1519   1518   1527   1536     1  0.0000000  1.0460000  1
   1519   1518   1527   1536     1  0.0000000  0.0000000  3
   1519   1518   1527   1528     1  0.0000000  0.6508444  3
   1519   1518   1527   1529     1  0.0000000  0.6508444  3
   1520   1518   1527   1536     1  0.0000000  1.0460000  1
   1520   1518   1527   1536     1  0.0000000  0.0000000  3
   1520   1518   1527   1528     1  0.0000000  0.6508444  3
   1520   1518   1527   1529     1  0.0000000  0.6508444  3
   1522   1521   1533   3131     1  0.0000000  1.0460000  1
   1522   1521   1533   3131     1  0.0000000  0.0000000  3
   1522   1521   1533   1534     1  0.0000000  0.6508444  3
   1522   1521   1533   1535     1  0.0000000  0.6508444  3
   1523   1521   1533   3131     1  0.0000000  1.0460000  1
   1523   1521   1533   3131     1  0.0000000  0.0000000  3
   1523   1521   1533   1534     1  0.0000000  0.6508444  3
   1523   1521   1533   1535     1  0.0000000  0.6508444  3
   1525   1524   1530   3102     1  0.0000000  1.0460000  1
   1525   1524   1530   3102     1  0.0000000  0.0000000  3
   1525   1524   1530   1531     1  0.0000000  0.6508444  3
   1525   1524   1530   1532     1  0.0000000  0.6508444  3
   1526   1524   1530   3102     1  0.0000000  1.0460000  1
   1526   1524   1530   3102     1  0.0000000  0.0000000  3
   1526   1524   1530   1531     1  0.0000000  0.6508444  3
   1526   1524   1530   1532     1  0.0000000  0.6508444  3
   1530   3102   3093   3094     1  0.0000000  1.6038667  3
   1530   3102   3093   3095     1  0.0000000  1.6038667  3
   1531   1530   3102   3093     1  0.0000000  1.6038667  3
   1532   1530   3102   3093     1  0.0000000  1.6038667  3
   1533   3131   3122   3123     1  0.0000000  1.6038667  3
   1533   3131   3122   3124     1  0.0000000  1.6038667  3
   1534   1533   3131   3122     1  0.0000000  1.6038667  3
   1535   1533   3131   3122     1  0.0000000  1.6038667  3
   1537   1538   1550   1551     1  0.0000000  0.6508444  3
   1537   1538   1550   1552     1  0.0000000  0.6508444  3
   1537   1541   1553   1554     1  0.0000000  0.6508444  3
   1537   1541   1553   1555     1  0.0000000  0.6508444  3
   1537   1544   1547   1548     1  0.0000000  0.6508444  3
   1537   1544   1547   1549     1  0.0000000  0.6508444  3
   1538   1537   1541   1542     1  0.0000000  1.2552000  3
   1538   1537   1541   1543     1  0.0000000  1.2552000  3
   1538   1537   1544   1545     1  0.0000000  1.2552000  3
   1538   1537   1544   1546     1  0.0000000  1.2552000  3
   1538   1550   1562   1563     1  0.0000000  0.6508444  3
   1538   1550   1562   1564     1  0.0000000  0.6508444  3
   1539   1538   1537   1541     1  0.0000000  1.2552000  3
   1539   1538   1537   1544     1  0.0000000  1.2552000  3
   1539   1538   1550   1562     1  0.0000000  0.6508444  3
   1539   1538   1550   1551     1  0.0000000  0.6508444  3
   1539   1538   1550   1552     1  0.0000000  0.6508444  3
   1540   1538   1537   1541     1  0.0000000  1.2552000  3
   1540   1538   1537   1544     1  0.0000000  1.2552000  3
   1540   1538   1550   1562     1  0.0000000  0.6508444  3
   1540   1538   1550   1551     1  0.0000000  0.6508444  3
   1540   1538   1550   1552     1  0.0000000  0.6508444  3
   1541   1537   1544   1545     1  0.0000000  1.2552000  3
   1541   1537   1544   1546     1  0.0000000  1.2552000  3
   1541   1553   1559   1560     1  0.0000000  0.6508444  3
   1541   1553   1559   1561     1  0.0000000  0.6508444  3
   1542   1541   1537   1544     1  0.0000000  1.2552000  3
   1542   1541   1553   1559     1  0.0000000  0.6508444  3
   1542   1541   1553   1554     1  0.0000000  0.6508444  3
   1542   1541   1553   1555     1  0.0000000  0.6508444  3
   1543   1541   1537   1544     1  0.0000000  1.2552000  3
   1543   1541   1553   1559     1  0.0000000  0.6508444  3
   1543   1541   1553   1554     1  0.0000000  0.6508444  3
   1543   1541   1553   1555     1  0.0000000  0.6508444  3
   1544   1547   1556   1557     1  0.0000000  0.6508444  3
   1544   1547   1556   1558     1  0.0000000  0.6508444  3
   1545   1544   1547   1556     1  0.0000000  0.6508444  3
   1545   1544   1547   1548     1  0.0000000  0.6508444  3
   1545   1544   1547   1549     1  0.0000000  0.6508444  3
   1546   1544   1547   1556     1  0.0000000  0.6508444  3
   1546   1544   1547   1548     1  0.0000000  0.6508444  3
   1546   1544   1547   1549     1  0.0000000  0.6508444  3
   1548   1547   1556   1565     1  0.0000000  1.0460000  1
   1548   1547   1556   1565     1  0.0000000  0.0000000  3
   1548   1547   1556   1557     1  0.0000000  0.6508444  3
   1548   1547   1556   1558     1  0.0000000  0.6508444  3
   1549   1547   1556   1565     1  0.0000000  1.0460000  1
   1549   1547   1556   1565     1  0.0000000  0.0000000  3
   1549   1547   1556   1557     1  0.0000000  0.6508444  3
   1549   1547   1556   1558     1  0.0000000  0.6508444  3
   1551   1550   1562   3189     1  0.0000000  1.0460000  1
   1551   1550   1562   3189     1  0.0000000  0.0000000  3
   1551   1550   1562   1563     1  0.0000000  0.6508444  3
   1551   1550   1562   1564     1  0.0000000  0.6508444  3
   1552   1550   1562   3189     1  0.0000000  1.0460000  1
   1552   1550   1562   3189     1  0.0000000  0.0000000  3
   1552   1550   1562   1563     1  0.0000000  0.6508444  3
   1552   1550   1562   1564     1  0.0000000  0.6508444  3
   1554   1553   1559   3160     1  0.0000000  1.0460000  1
   1554   1553   1559   3160     1  0.0000000  0.0000000  3
   1554   1553   1559   1560     1  0.0000000  0.6508444  3
   1554   1553   1559   1561     1  0.0000000  0.6508444  3
   1555   1553   1559   3160     1  0.0000000  1.0460000  1
   1555   1553   1559   3160     1  0.0000000  0.0000000  3
   1555   1553   1559   1560     1  0.0000000  0.6508444  3
   1555   1553   1559   1561     1  0.0000000  0.6508444  3
   1559   3160   3151   3152     1  0.0000000  1.6038667  3
   1559   3160   3151   3153     1  0.0000000  1.6038667  3
   1560   1559   3160   3151     1  0.0000000  1.6038667  3
   1561   1559   3160   3151     1  0.0000000  1.6038667  3
   1562   3189   3180   3181     1  0.0000000  1.6038667  3
   1562   3189   3180   3182     1  0.0000000  1.6038667  3
   1563   1562   3189   3180     1  0.0000000  1.6038667  3
   1564   1562   3189   3180     1  0.0000000  1.6038667  3
   1566   1567   1579   1580     1  0.0000000  0.6508444  3
   1566   1567   1579   1581     1  0.0000000  0.6508444  3
   1566   1570   1582   1583     1  0.0000000  0.6508444  3
   1566   1570   1582   1584     1  0.0000000  0.6508444  3
   1566   1573   1576   1577     1  0.0000000  0.6508444  3
   1566   1573   1576   1578     1  0.0000000  0.6508444  3
   1567   1566   1570   1571     1  0.0000000  1.2552000  3
   1567   1566   1570   1572     1  0.0000000  1.2552000  3
   1567   1566   1573   1574     1  0.0000000  1.2552000  3
   1567   1566   1573   1575     1  0.0000000  1.2552000  3
   1567   1579   1591   1592     1  0.0000000  0.6508444  3
   1567   1579   1591   1593     1  0.0000000  0.6508444  3
   1568   1567   1566   1570     1  0.0000000  1.2552000  3
   1568   1567   1566   1573     1  0.0000000  1.2552000  3
   1568   1567   1579   1591     1  0.0000000  0.6508444  3
   1568   1567   1579   1580     1  0.0000000  0.6508444  3
   1568   1567   1579   1581     1  0.0000000  0.6508444  3
   1569   1567   1566   1570     1  0.0000000  1.2552000  3
   1569   1567   1566   1573     1  0.0000000  1.2552000  3
   1569   1567   1579   1591     1  0.0000000  0.6508444  3
   1569   1567   1579   1580     1  0.0000000  0.6508444  3
   1569   1567   1579   1581     1  0.0000000  0.6508444  3
   1570   1566   1573   1574     1  0.0000000  1.2552000  3
   1570   1566   1573   1575     1  0.0000000  1.2552000  3
   1570   1582   1588   1589     1  0.0000000  0.6508444  3
   1570   1582   1588   1590     1  0.0000000  0.6508444  3
   1571   1570   1566   1573     1  0.0000000  1.2552000  3
   1571   1570   1582   1588     1  0.0000000  0.6508444  3
   1571   1570   1582   1583     1  0.0000000  0.6508444  3
   1571   1570   1582   1584     1  0.0000000  0.6508444  3
   1572   1570   1566   1573     1  0.0000000  1.2552000  3
   1572   1570   1582   1588     1  0.0000000  0.6508444  3
   1572   1570   1582   1583     1  0.0000000  0.6508444  3
   1572   1570   1582   1584     1  0.0000000  0.6508444  3
   1573   1576   1585   1586     1  0.0000000  0.6508444  3
   1573   1576   1585   1587     1  0.0000000  0.6508444  3
   1574   1573   1576   1585     1  0.0000000  0.6508444  3
   1574   1573   1576   1577     1  0.0000000  0.6508444  3
   1574   1573   1576   1578     1  0.0000000  0.6508444  3
   1575   1573   1576   1585     1  0.0000000  0.6508444  3
   1575   1573   1576   1577     1  0.0000000  0.6508444  3
   1575   1573   1576   1578     1  0.0000000  0.6508444  3
   1577   1576   1585   1594     1  0.0000000  1.0460000  1
   1577   1576   1585   1594     1  0.0000000  0.0000000  3
   1577   1576   1585   1586     1  0.0000000  0.6508444  3
   1577   1576   1585   1587     1  0.0000000  0.6508444  3
   1578   1576   1585   1594     1  0.0000000  1.0460000  1
   1578   1576   1585   1594     1  0.0000000  0.0000000  3
   1578   1576   1585   1586     1  0.0000000  0.6508444  3
   1578   1576   1585   1587     1  0.0000000  0.6508444  3
   1580   1579   1591   3247     1  0.0000000  1.0460000  1
   1580   1579   1591   3247     1  0.0000000  0.0000000  3
   1580   1579   1591   1592     1  0.0000000  0.6508444  3
   1580   1579   1591   1593     1  0.0000000  0.6508444  3
   1581   1579   1591   3247     1  0.0000000  1.0460000  1
   1581   1579   1591   3247     1  0.0000000  0.0000000  3
   1581   1579   1591   1592     1  0.0000000  0.6508444  3
   1581   1579   1591   1593     1  0.0000000  0.6508444  3
   1583   1582   1588   3218     1  0.0000000  1.0460000  1
   1583   1582   1588   3218     1  0.0000000  0.0000000  3
   1583   1582   1588   1589     1  0.0000000  0.6508444  3
   1583   1582   1588   1590     1  0.0000000  0.6508444  3
   1584   1582   1588   3218     1  0.0000000  1.0460000  1
   1584   1582   1588   3218     1  0.0000000  0.0000000  3
   1584   1582   1588   1589     1  0.0000000  0.6508444  3
   1584   1582   1588   1590     1  0.0000000  0.6508444  3
   1588   3218   3209   3210     1  0.0000000  1.6038667  3
   1588   3218   3209   3211     1  0.0000000  1.6038667  3
   1589   1588   3218   3209     1  0.0000000  1.6038667  3
   1590   1588   3218   3209     1  0.0000000  1.6038667  3
   1591   3247   3238   3239     1  0.0000000  1.6038667  3
   1591   3247   3238   3240     1  0.0000000  1.6038667  3
   1592   1591   3247   3238     1  0.0000000  1.6038667  3
   1593   1591   3247   3238     1  0.0000000  1.6038667  3
   1595   1596   1608   1609     1  0.0000000  0.6508444  3
   1595   1596   1608   1610     1  0.0000000  0.6508444  3
   1595   1599   1611   1612     1  0.0000000  0.6508444  3
   1595   1599   1611   1613     1  0.0000000  0.6508444  3
   1595   1602   1605   1606     1  0.0000000  0.6508444  3
   1595   1602   1605   1607     1  0.0000000  0.6508444  3
   1596   1595   1599   1600     1  0.0000000  1.2552000  3
   1596   1595   1599   1601     1  0.0000000  1.2552000  3
   1596   1595   1602   1603     1  0.0000000  1.2552000  3
   1596   1595   1602   1604     1  0.0000000  1.2552000  3
   1596   1608   1620   1621     1  0.0000000  0.6508444  3
   1596   1608   1620   1622     1  0.0000000  0.6508444  3
   1597   1596   1595   1599     1  0.0000000  1.2552000  3
   1597   1596   1595   1602     1  0.0000000  1.2552000  3
   1597   1596   1608   1620     1  0.0000000  0.6508444  3
   1597   1596   1608   1609     1  0.0000000  0.6508444  3
   1597   1596   1608   1610     1  0.0000000  0.6508444  3
   1598   1596   1595   1599     1  0.0000000  1.2552000  3
   1598   1596   1595   1602     1  0.0000000  1.2552000  3
   1598   1596   1608   1620     1  0.0000000  0.6508444  3
   1598   1596   1608   1609     1  0.0000000  0.6508444  3
   1598   1596   1608   1610     1  0.0000000  0.6508444  3
   1599   1595   1602   1603     1  0.0000000  1.2552000  3
   1599   1595   1602   1604     1  0.0000000  1.2552000  3
   1599   1611   1617   1618     1  0.0000000  0.6508444  3
   1599   1611   1617   1619     1  0.0000000  0.6508444  3
   1600   1599   1595   1602     1  0.0000000  1.2552000  3
   1600   1599   1611   1617     1  0.0000000  0.6508444  3
   1600   1599   1611   1612     1  0.0000000  0.6508444  3
   1600   1599   1611   1613     1  0.0000000  0.6508444  3
   1601   1599   1595   1602     1  0.0000000  1.2552000  3
   1601   1599   1611   1617     1  0.0000000  0.6508444  3
   1601   1599   1611   1612     1  0.0000000  0.6508444  3
   1601   1599   1611   1613     1  0.0000000  0.6508444  3
   1602   1605   1614   1615     1  0.0000000  0.6508444  3
   1602   1605   1614   1616     1  0.0000000  0.6508444  3
   1603   1602   1605   1614     1  0.0000000  0.6508444  3
   1603   1602   1605   1606     1  0.0000000  0.6508444  3
   1603   1602   1605   1607     1  0.0000000  0.6508444  3
   1604   1602   1605   1614     1  0.0000000  0.6508444  3
   1604   1602   1605   1606     1  0.0000000  0.6508444  3
   1604   1602   1605   1607     1  0.0000000  0.6508444  3
   1606   1605   1614   1623     1  0.0000000  1.0460000  1
   1606   1605   1614   1623     1  0.0000000  0.0000000  3
   1606   1605   1614   1615     1  0.0000000  0.6508444  3
   1606   1605   1614   1616     1  0.0000000  0.6508444  3
   1607   1605   1614   1623     1  0.0000000  1.0460000  1
   1607   1605   1614   1623     1  0.0000000  0.0000000  3
   1607   1605   1614   1615     1  0.0000000  0.6508444  3
   1607   1605   1614   1616     1  0.0000000  0.6508444  3
   1609   1608   1620   3305     1  0.0000000  1.0460000  1
   1609   1608   1620   3305     1  0.0000000  0.0000000  3
   1609   1608   1620   1621     1  0.0000000  0.6508444  3
   1609   1608   1620   1622     1  0.0000000  0.6508444  3
   1610   1608   1620   3305     1  0.0000000  1.0460000  1
   1610   1608   1620   3305     1  0.0000000  0.0000000  3
   1610   1608   1620   1621     1  0.0000000  0.6508444  3
   1610   1608   1620   1622     1  0.0000000  0.6508444  3
   1612   1611   1617   3276     1  0.0000000  1.0460000  1
   1612   1611   1617   3276     1  0.0000000  0.0000000  3
   1612   1611   1617   1618     1  0.0000000  0.6508444  3
   1612   1611   1617   1619     1  0.0000000  0.6508444  3
   1613   1611   1617   3276     1  0.0000000  1.0460000  1
   1613   1611   1617   3276     1  0.0000000  0.0000000  3
   1613   1611   1617   1618     1  0.0000000  0.6508444  3
   1613   1611   1617   1619     1  0.0000000  0.6508444  3
   1617   3276   3267   3268     1  0.0000000  1.6038667  3
   1617   3276   3267   3269     1  0.0000000  1.6038667  3
   1618   1617   3276   3267     1  0.0000000  1.6038667  3
   1619   1617   3276   3267     1  0.0000000  1.6038667  3
   1620   3305   3296   3297     1  0.0000000  1.6038667  3
   1620   3305   3296   3298     1  0.0000000  1.6038667  3
   1621   1620   3305   3296     1  0.0000000  1.6038667  3
   1622   1620   3305   3296     1  0.0000000  1.6038667  3
   1624   1625   1637   1638     1  0.0000000  0.6508444  3
   1624   1625   1637   1639     1  0.0000000  0.6508444  3
   1624   1628   1640   1641     1  0.0000000  0.6508444  3
   1624   1628   1640   1642     1  0.0000000  0.6508444  3
   1624   1631   1634   1635     1  0.0000000  0.6508444  3
   1624   1631   1634   1636     1  0.0000000  0.6508444  3
   1625   1624   1628   1629     1  0.0000000  1.2552000  3
   1625   1624   1628   1630     1  0.0000000  1.2552000  3
   1625   1624   1631   1632     1  0.0000000  1.2552000  3
   1625   1624   1631   1633     1  0.0000000  1.2552000  3
   1625   1637   1649   1650     1  0.0000000  0.6508444  3
   1625   1637   1649   1651     1  0.0000000  0.6508444  3
   1626   1625   1624   1628     1  0.0000000  1.2552000  3
   1626   1625   1624   1631     1  0.0000000  1.2552000  3
   1626   1625   1637   1649     1  0.0000000  0.6508444  3
   1626   1625   1637   1638     1  0.0000000  0.6508444  3
   1626   1625   1637   1639     1  0.0000000  0.6508444  3
   1627   1625   1624   1628     1  0.0000000  1.2552000  3
   1627   1625   1624   1631     1  0.0000000  1.2552000  3
   1627   1625   1637   1649     1  0.0000000  0.6508444  3
   1627   1625   1637   1638     1  0.0000000  0.6508444  3
   1627   1625   1637   1639     1  0.0000000  0.6508444  3
   1628   1624   1631   1632     1  0.0000000  1.2552000  3
   1628   1624   1631   1633     1  0.0000000  1.2552000  3
   1628   1640   1646   1647     1  0.0000000  0.6508444  3
   1628   1640   1646   1648     1  0.0000000  0.6508444  3
   1629   1628   1624   1631     1  0.0000000  1.2552000  3
   1629   1628   1640   1646     1  0.0000000  0.6508444  3
   1629   1628   1640   1641     1  0.0000000  0.6508444  3
   1629   1628   1640   1642     1  0.0000000  0.6508444  3
   1630   1628   1624   1631     1  0.0000000  1.2552000  3
   1630   1628   1640   1646     1  0.0000000  0.6508444  3
   1630   1628   1640   1641     1  0.0000000  0.6508444  3
   1630   1628   1640   1642     1  0.0000000  0.6508444  3
   1631   1634   1643   1644     1  0.0000000  0.6508444  3
   1631   1634   1643   1645     1  0.0000000  0.6508444  3
   1632   1631   1634   1643     1  0.0000000  0.6508444  3
   1632   1631   1634   1635     1  0.0000000  0.6508444  3
   1632   1631   1634   1636     1  0.0000000  0.6508444  3
   1633   1631   1634   1643     1  0.0000000  0.6508444  3
   1633   1631   1634   1635     1  0.0000000  0.6508444  3
   1633   1631   1634   1636     1  0.0000000  0.6508444  3
   1635   1634   1643   1652     1  0.0000000  1.0460000  1
   1635   1634   1643   1652     1  0.0000000  0.0000000  3
   1635   1634   1643   1644     1  0.0000000  0.6508444  3
   1635   1634   1643   1645     1  0.0000000  0.6508444  3
   1636   1634   1643   1652     1  0.0000000  1.0460000  1
   1636   1634   1643   1652     1  0.0000000  0.0000000  3
   1636   1634   1643   1644     1  0.0000000  0.6508444  3
   1636   1634   1643   1645     1  0.0000000  0.6508444  3
   1638   1637   1649   3363     1  0.0000000  1.0460000  1
   1638   1637   1649   3363     1  0.0000000  0.0000000  3
   1638   1637   1649   1650     1  0.0000000  0.6508444  3
   1638   1637   1649   1651     1  0.0000000  0.6508444  3
   1639   1637   1649   3363     1  0.0000000  1.0460000  1
   1639   1637   1649   3363     1  0.0000000  0.0000000  3
   1639   1637   1649   1650     1  0.0000000  0.6508444  3
   1639   1637   1649   1651     1  0.0000000  0.6508444  3
   1641   1640   1646   3334     1  0.0000000  1.0460000  1
   1641   1640   1646   3334     1  0.0000000  0.0000000  3
   1641   1640   1646   1647     1  0.0000000  0.6508444  3
   1641   1640   1646   1648     1  0.0000000  0.6508444  3
   1642   1640   1646   3334     1  0.0000000  1.0460000  1
   1642   1640   1646   3334     1  0.0000000  0.0000000  3
   1642   1640   1646   1647     1  0.0000000  0.6508444  3
   1642   1640   1646   1648     1  0.0000000  0.6508444  3
   1646   3334   3325   3326     1  0.0000000  1.6038667  3
   1646   3334   3325   3327     1  0.0000000  1.6038667  3
   1647   1646   3334   3325     1  0.0000000  1.6038667  3
   1648   1646   3334   3325     1  0.0000000  1.6038667  3
   1649   3363   3354   3355     1  0.0000000  1.6038667  3
   1649   3363   3354   3356     1  0.0000000  1.6038667  3
   1650   1649   3363   3354     1  0.0000000  1.6038667  3
   1651   1649   3363   3354     1  0.0000000  1.6038667  3
   1653   1654   1666   1667     1  0.0000000  0.6508444  3
   1653   1654   1666   1668     1  0.0000000  0.6508444  3
   1653   1657   1669   1670     1  0.0000000  0.6508444  3
   1653   1657   1669   1671     1  0.0000000  0.6508444  3
   1653   1660   1663   1664     1  0.0000000  0.6508444  3
   1653   1660   1663   1665     1  0.0000000  0.6508444  3
   1654   1653   1657   1658     1  0.0000000  1.2552000  3
   1654   1653   1657   1659     1  0.0000000  1.2552000  3
   1654   1653   1660   1661     1  0.0000000  1.2552000  3
   1654   1653   1660   1662     1  0.0000000  1.2552000  3
   1654   1666   1678   1679     1  0.0000000  0.6508444  3
   1654   1666   1678   1680     1  0.0000000  0.6508444  3
   1655   1654   1653   1657     1  0.0000000  1.2552000  3
   1655   1654   1653   1660     1  0.0000000  1.2552000  3
   1655   1654   1666   1678     1  0.0000000  0.6508444  3
   1655   1654   1666   1667     1  0.0000000  0.6508444  3
   1655   1654   1666   1668     1  0.0000000  0.6508444  3
   1656   1654   1653   1657     1  0.0000000  1.2552000  3
   1656   1654   1653   1660     1  0.0000000  1.2552000  3
   1656   1654   1666   1678     1  0.0000000  0.6508444  3
   1656   1654   1666   1667     1  0.0000000  0.6508444  3
   1656   1654   1666   1668     1  0.0000000  0.6508444  3
   1657   1653   1660   1661     1  0.0000000  1.2552000  3
   1657   1653   1660   1662     1  0.0000000  1.2552000  3
   1657   1669   1675   1676     1  0.0000000  0.6508444  3
   1657   1669   1675   1677     1  0.0000000  0.6508444  3
   1658   1657   1653   1660     1  0.0000000  1.2552000  3
   1658   1657   1669   1675     1  0.0000000  0.6508444  3
   1658   1657   1669   1670     1  0.0000000  0.6508444  3
   1658   1657   1669   1671     1  0.0000000  0.6508444  3
   1659   1657   1653   1660     1  0.0000000  1.2552000  3
   1659   1657   1669   1675     1  0.0000000  0.6508444  3
   1659   1657   1669   1670     1  0.0000000  0.6508444  3
   1659   1657   1669   1671     1  0.0000000  0.6508444  3
   1660   1663   1672   1673     1  0.0000000  0.6508444  3
   1660   1663   1672   1674     1  0.0000000  0.6508444  3
   1661   1660   1663   1672     1  0.0000000  0.6508444  3
   1661   1660   1663   1664     1  0.0000000  0.6508444  3
   1661   1660   1663   1665     1  0.0000000  0.6508444  3
   1662   1660   1663   1672     1  0.0000000  0.6508444  3
   1662   1660   1663   1664     1  0.0000000  0.6508444  3
   1662   1660   1663   1665     1  0.0000000  0.6508444  3
   1664   1663   1672   1681     1  0.0000000  1.0460000  1
   1664   1663   1672   1681     1  0.0000000  0.0000000  3
   1664   1663   1672   1673     1  0.0000000  0.6508444  3
   1664   1663   1672   1674     1  0.0000000  0.6508444  3
   1665   1663   1672   1681     1  0.0000000  1.0460000  1
   1665   1663   1672   1681     1  0.0000000  0.0000000  3
   1665   1663   1672   1673     1  0.0000000  0.6508444  3
   1665   1663   1672   1674     1  0.0000000  0.6508444  3
   1667   1666   1678   3421     1  0.0000000  1.0460000  1
   1667   1666   1678   3421     1  0.0000000  0.0000000  3
   1667   1666   1678   1679     1  0.0000000  0.6508444  3
   1667   1666   1678   1680     1  0.0000000  0.6508444  3
   1668   1666   1678   3421     1  0.0000000  1.0460000  1
   1668   1666   1678   3421     1  0.0000000  0.0000000  3
   1668   1666   1678   1679     1  0.0000000  0.6508444  3
   1668   1666   1678   1680     1  0.0000000  0.6508444  3
   1670   1669   1675   3392     1  0.0000000  1.0460000  1
   1670   1669   1675   3392     1  0.0000000  0.0000000  3
   1670   1669   1675   1676     1  0.0000000  0.6508444  3
   1670   1669   1675   1677     1  0.0000000  0.6508444  3
   1671   1669   1675   3392     1  0.0000000  1.0460000  1
   1671   1669   1675   3392     1  0.0000000  0.0000000  3
   1671   1669   1675   1676     1  0.0000000  0.6508444  3
   1671   1669   1675   1677     1  0.0000000  0.6508444  3
   1675   3392   3383   3384     1  0.0000000  1.6038667  3
   1675   3392   3383   3385     1  0.0000000  1.6038667  3
   1676   1675   3392   3383     1  0.0000000  1.6038667  3
   1677   1675   3392   3383     1  0.0000000  1.6038667  3
   1678   3421   3412   3413     1  0.0000000  1.6038667  3
   1678   3421   3412   3414     1  0.0000000  1.6038667  3
   1679   1678   3421   3412     1  0.0000000  1.6038667  3
   1680   1678   3421   3412     1  0.0000000  1.6038667  3
   1682   1683   1695   1696     1  0.0000000  0.6508444  3
   1682   1683   1695   1697     1  0.0000000  0.6508444  3
   1682   1686   1698   1699     1  0.0000000  0.6508444  3
   1682   1686   1698   1700     1  0.0000000  0.6508444  3
   1682   1689   1692   1693     1  0.0000000  0.6508444  3
   1682   1689   1692   1694     1  0.0000000  0.6508444  3
   1683   1682   1686   1687     1  0.0000000  1.2552000  3
   1683   1682   1686   1688     1  0.0000000  1.2552000  3
   1683   1682   1689   1690     1  0.0000000  1.2552000  3
   1683   1682   1689   1691     1  0.0000000  1.2552000  3
   1683   1695   1707   1708     1  0.0000000  0.6508444  3
   1683   1695   1707   1709     1  0.0000000  0.6508444  3
   1684   1683   1682   1686     1  0.0000000  1.2552000  3
   1684   1683   1682   1689     1  0.0000000  1.2552000  3
   1684   1683   1695   1707     1  0.0000000  0.6508444  3
   1684   1683   1695   1696     1  0.0000000  0.6508444  3
   1684   1683   1695   1697     1  0.0000000  0.6508444  3
   1685   1683   1682   1686     1  0.0000000  1.2552000  3
   1685   1683   1682   1689     1  0.0000000  1.2552000  3
   1685   1683   1695   1707     1  0.0000000  0.6508444  3
   1685   1683   1695   1696     1  0.0000000  0.6508444  3
   1685   1683   1695   1697     1  0.0000000  0.6508444  3
   1686   1682   1689   1690     1  0.0000000  1.2552000  3
   1686   1682   1689   1691     1  0.0000000  1.2552000  3
   1686   1698   1704   1705     1  0.0000000  0.6508444  3
   1686   1698   1704   1706     1  0.0000000  0.6508444  3
   1687   1686   1682   1689     1  0.0000000  1.2552000  3
   1687   1686   1698   1704     1  0.0000000  0.6508444  3
   1687   1686   1698   1699     1  0.0000000  0.6508444  3
   1687   1686   1698   1700     1  0.0000000  0.6508444  3
   1688   1686   1682   1689     1  0.0000000  1.2552000  3
   1688   1686   1698   1704     1  0.0000000  0.6508444  3
   1688   1686   1698   1699     1  0.0000000  0.6508444  3
   1688   1686   1698   1700     1  0.0000000  0.6508444  3
   1689   1692   1701   1702     1  0.0000000  0.6508444  3
   1689   1692   1701   1703     1  0.0000000  0.6508444  3
   1690   1689   1692   1701     1  0.0000000  0.6508444  3
   1690   1689   1692   1693     1  0.0000000  0.6508444  3
   1690   1689   1692   1694     1  0.0000000  0.6508444  3
   1691   1689   1692   1701     1  0.0000000  0.6508444  3
   1691   1689   1692   1693     1  0.0000000  0.6508444  3
   1691   1689   1692   1694     1  0.0000000  0.6508444  3
   1693   1692   1701   1710     1  0.0000000  1.0460000  1
   1693   1692   1701   1710     1  0.0000000  0.0000000  3
   1693   1692   1701   1702     1  0.0000000  0.6508444  3
   1693   1692   1701   1703     1  0.0000000  0.6508444  3
   1694   1692   1701   1710     1  0.0000000  1.0460000  1
   1694   1692   1701   1710     1  0.0000000  0.0000000  3
   1694   1692   1701   1702     1  0.0000000  0.6508444  3
   1694   1692   1701   1703     1  0.0000000  0.6508444  3
   1696   1695   1707   3479     1  0.0000000  1.0460000  1
   1696   1695   1707   3479     1  0.0000000  0.0000000  3
   1696   1695   1707   1708     1  0.0000000  0.6508444  3
   1696   1695   1707   1709     1  0.0000000  0.6508444  3
   1697   1695   1707   3479     1  0.0000000  1.0460000  1
   1697   1695   1707   3479     1  0.0000000  0.0000000  3
   1697   1695   1707   1708     1  0.0000000  0.6508444  3
   1697   1695   1707   1709     1  0.0000000  0.6508444  3
   1699   1698   1704   3450     1  0.0000000  1.0460000  1
   1699   1698   1704   3450     1  0.0000000  0.0000000  3
   1699   1698   1704   1705     1  0.0000000  0.6508444  3
   1699   1698   1704   1706     1  0.0000000  0.6508444  3
   1700   1698   1704   3450     1  0.0000000  1.0460000  1
   1700   1698   1704   3450     1  0.0000000  0.0000000  3
   1700   1698   1704   1705     1  0.0000000  0.6508444  3
   1700   1698   1704   1706     1  0.0000000  0.6508444  3
   1704   3450   3441   3442     1  0.0000000  1.6038667  3
   1704   3450   3441   3443     1  0.0000000  1.6038667  3
   1705   1704   3450   3441     1  0.0000000  1.6038667  3
   1706   1704   3450   3441     1  0.0000000  1.6038667  3
   1707   3479   3470   3471     1  0.0000000  1.6038667  3
   1707   3479   3470   3472     1  0.0000000  1.6038667  3
   1708   1707   3479   3470     1  0.0000000  1.6038667  3
   1709   1707   3479   3470     1  0.0000000  1.6038667  3
   1711   1712   1724   1725     1  0.0000000  0.6508444  3
   1711   1712   1724   1726     1  0.0000000  0.6508444  3
   1711   1715   1727   1728     1  0.0000000  0.6508444  3
   1711   1715   1727   1729     1  0.0000000  0.6508444  3
   1711   1718   1721   1722     1  0.0000000  0.6508444  3
   1711   1718   1721   1723     1  0.0000000  0.6508444  3
   1712   1711   1715   1716     1  0.0000000  1.2552000  3
   1712   1711   1715   1717     1  0.0000000  1.2552000  3
   1712   1711   1718   1719     1  0.0000000  1.2552000  3
   1712   1711   1718   1720     1  0.0000000  1.2552000  3
   1712   1724   1736   1737     1  0.0000000  0.6508444  3
   1712   1724   1736   1738     1  0.0000000  0.6508444  3
   1713   1712   1711   1715     1  0.0000000  1.2552000  3
   1713   1712   1711   1718     1  0.0000000  1.2552000  3
   1713   1712   1724   1736     1  0.0000000  0.6508444  3
   1713   1712   1724   1725     1  0.0000000  0.6508444  3
   1713   1712   1724   1726     1  0.0000000  0.6508444  3
   1714   1712   1711   1715     1  0.0000000  1.2552000  3
   1714   1712   1711   1718     1  0.0000000  1.2552000  3
   1714   1712   1724   1736     1  0.0000000  0.6508444  3
   1714   1712   1724   1725     1  0.0000000  0.6508444  3
   1714   1712   1724   1726     1  0.0000000  0.6508444  3
   1715   1711   1718   1719     1  0.0000000  1.2552000  3
   1715   1711   1718   1720     1  0.0000000  1.2552000  3
   1715   1727   1733   1734     1  0.0000000  0.6508444  3
   1715   1727   1733   1735     1  0.0000000  0.6508444  3
   1716   1715   1711   1718     1  0.0000000  1.2552000  3
   1716   1715   1727   1733     1  0.0000000  0.6508444  3
   1716   1715   1727   1728     1  0.0000000  0.6508444  3
   1716   1715   1727   1729     1  0.0000000  0.6508444  3
   1717   1715   1711   1718     1  0.0000000  1.2552000  3
   1717   1715   1727   1733     1  0.0000000  0.6508444  3
   1717   1715   1727   1728     1  0.0000000  0.6508444  3
   1717   1715   1727   1729     1  0.0000000  0.6508444  3
   1718   1721   1730   1731     1  0.0000000  0.6508444  3
   1718   1721   1730   1732     1  0.0000000  0.6508444  3
   1719   1718   1721   1730     1  0.0000000  0.6508444  3
   1719   1718   1721   1722     1  0.0000000  0.6508444  3
   1719   1718   1721   1723     1  0.0000000  0.6508444  3
   1720   1718   1721   1730     1  0.0000000  0.6508444  3
   1720   1718   1721   1722     1  0.0000000  0.6508444  3
   1720   1718   1721   1723     1  0.0000000  0.6508444  3
   1722   1721   1730   1739     1  0.0000000  1.0460000  1
   1722   1721   1730   1739     1  0.0000000  0.0000000  3
   1722   1721   1730   1731     1  0.0000000  0.6508444  3
   1722   1721   1730   1732     1  0.0000000  0.6508444  3
   1723   1721   1730   1739     1  0.0000000  1.0460000  1
   1723   1721   1730   1739     1  0.0000000  0.0000000  3
   1723   1721   1730   1731     1  0.0000000  0.6508444  3
   1723   1721   1730   1732     1  0.0000000  0.6508444  3
   1725   1724   1736   3537     1  0.0000000  1.0460000  1
   1725   1724   1736   3537     1  0.0000000  0.0000000  3
   1725   1724   1736   1737     1  0.0000000  0.6508444  3
   1725   1724   1736   1738     1  0.0000000  0.6508444  3
   1726   1724   1736   3537     1  0.0000000  1.0460000  1
   1726   1724   1736   3537     1  0.0000000  0.0000000  3
   1726   1724   1736   1737     1  0.0000000  0.6508444  3
   1726   1724   1736   1738     1  0.0000000  0.6508444  3
   1728   1727   1733   3508     1  0.0000000  1.0460000  1
   1728   1727   1733   3508     1  0.0000000  0.0000000  3
   1728   1727   1733   1734     1  0.0000000  0.6508444  3
   1728   1727   1733   1735     1  0.0000000  0.6508444  3
   1729   1727   1733   3508     1  0.0000000  1.0460000  1
   1729   1727   1733   3508     1  0.0000000  0.0000000  3
   1729   1727   1733   1734     1  0.0000000  0.6508444  3
   1729   1727   1733   1735     1  0.0000000  0.6508444  3
   1733   3508   3499   3500     1  0.0000000  1.6038667  3
   1733   3508   3499   3501     1  0.0000000  1.6038667  3
   1734   1733   3508   3499     1  0.0000000  1.6038667  3
   1735   1733   3508   3499     1  0.0000000  1.6038667  3
   1736   3537   3528   3529     1  0.0000000  1.6038667  3
   1736   3537   3528   3530     1  0.0000000  1.6038667  3
   1737   1736   3537   3528     1  0.0000000  1.6038667  3
   1738   1736   3537   3528     1  0.0000000  1.6038667  3
   1740   1741   1753   1754     1  0.0000000  0.6508444  3
   1740   1741   1753   1755     1  0.0000000  0.6508444  3
   1740   1744   1756   1757     1  0.0000000  0.6508444  3
   1740   1744   1756   1758     1  0.0000000  0.6508444  3
   1740   1747   1750   1751     1  0.0000000  0.6508444  3
   1740   1747   1750   1752     1  0.0000000  0.6508444  3
   1741   1740   1744   1745     1  0.0000000  1.2552000  3
   1741   1740   1744   1746     1  0.0000000  1.2552000  3
   1741   1740   1747   1748     1  0.0000000  1.2552000  3
   1741   1740   1747   1749     1  0.0000000  1.2552000  3
   1741   1753   1765   1766     1  0.0000000  0.6508444  3
   1741   1753   1765   1767     1  0.0000000  0.6508444  3
   1742   1741   1740   1744     1  0.0000000  1.2552000  3
   1742   1741   1740   1747     1  0.0000000  1.2552000  3
   1742   1741   1753   1765     1  0.0000000  0.6508444  3
   1742   1741   1753   1754     1  0.0000000  0.6508444  3
   1742   1741   1753   1755     1  0.0000000  0.6508444  3
   1743   1741   1740   1744     1  0.0000000  1.2552000  3
   1743   1741   1740   1747     1  0.0000000  1.2552000  3
   1743   1741   1753   1765     1  0.0000000  0.6508444  3
   1743   1741   1753   1754     1  0.0000000  0.6508444  3
   1743   1741   1753   1755     1  0.0000000  0.6508444  3
   1744   1740   1747   1748     1  0.0000000  1.2552000  3
   1744   1740   1747   1749     1  0.0000000  1.2552000  3
   1744   1756   1762   1763     1  0.0000000  0.6508444  3
   1744   1756   1762   1764     1  0.0000000  0.6508444  3
   1745   1744   1740   1747     1  0.0000000  1.2552000  3
   1745   1744   1756   1762     1  0.0000000  0.6508444  3
   1745   1744   1756   1757     1  0.0000000  0.6508444  3
   1745   1744   1756   1758     1  0.0000000  0.6508444  3
   1746   1744   1740   1747     1  0.0000000  1.2552000  3
   1746   1744   1756   1762     1  0.0000000  0.6508444  3
   1746   1744   1756   1757     1  0.0000000  0.6508444  3
   1746   1744   1756   1758     1  0.0000000  0.6508444  3
   1747   1750   1759   1760     1  0.0000000  0.6508444  3
   1747   1750   1759   1761     1  0.0000000  0.6508444  3
   1748   1747   1750   1759     1  0.0000000  0.6508444  3
   1748   1747   1750   1751     1  0.0000000  0.6508444  3
   1748   1747   1750   1752     1  0.0000000  0.6508444  3
   1749   1747   1750   1759     1  0.0000000  0.6508444  3
   1749   1747   1750   1751     1  0.0000000  0.6508444  3
   1749   1747   1750   1752     1  0.0000000  0.6508444  3
   1751   1750   1759   1768     1  0.0000000  1.0460000  1
   1751   1750   1759   1768     1  0.0000000  0.0000000  3
   1751   1750   1759   1760     1  0.0000000  0.6508444  3
   1751   1750   1759   1761     1  0.0000000  0.6508444  3
   1752   1750   1759   1768     1  0.0000000  1.0460000  1
   1752   1750   1759   1768     1  0.0000000  0.0000000  3
   1752   1750   1759   1760     1  0.0000000  0.6508444  3
   1752   1750   1759   1761     1  0.0000000  0.6508444  3
   1754   1753   1765   3595     1  0.0000000  1.0460000  1
   1754   1753   1765   3595     1  0.0000000  0.0000000  3
   1754   1753   1765   1766     1  0.0000000  0.6508444  3
   1754   1753   1765   1767     1  0.0000000  0.6508444  3
   1755   1753   1765   3595     1  0.0000000  1.0460000  1
   1755   1753   1765   3595     1  0.0000000  0.0000000  3
   1755   1753   1765   1766     1  0.0000000  0.6508444  3
   1755   1753   1765   1767     1  0.0000000  0.6508444  3
   1757   1756   1762   3566     1  0.0000000  1.0460000  1
   1757   1756   1762   3566     1  0.0000000  0.0000000  3
   1757   1756   1762   1763     1  0.0000000  0.6508444  3
   1757   1756   1762   1764     1  0.0000000  0.6508444  3
   1758   1756   1762   3566     1  0.0000000  1.0460000  1
   1758   1756   1762   3566     1  0.0000000  0.0000000  3
   1758   1756   1762   1763     1  0.0000000  0.6508444  3
   1758   1756   1762   1764     1  0.0000000  0.6508444  3
   1762   3566   3557   3558     1  0.0000000  1.6038667  3
   1762   3566   3557   3559     1  0.0000000  1.6038667  3
   1763   1762   3566   3557     1  0.0000000  1.6038667  3
   1764   1762   3566   3557     1  0.0000000  1.6038667  3
   1765   3595   3586   3587     1  0.0000000  1.6038667  3
   1765   3595   3586   3588     1  0.0000000  1.6038667  3
   1766   1765   3595   3586     1  0.0000000  1.6038667  3
   1767   1765   3595   3586     1  0.0000000  1.6038667  3
   1769   1770   1782   1783     1  0.0000000  0.6508444  3
   1769   1770   1782   1784     1  0.0000000  0.6508444  3
   1769   1773   1785   1786     1  0.0000000  0.6508444  3
   1769   1773   1785   1787     1  0.0000000  0.6508444  3
   1769   1776   1779   1780     1  0.0000000  0.6508444  3
   1769   1776   1779   1781     1  0.0000000  0.6508444  3
   1770   1769   1773   1774     1  0.0000000  1.2552000  3
   1770   1769   1773   1775     1  0.0000000  1.2552000  3
   1770   1769   1776   1777     1  0.0000000  1.2552000  3
   1770   1769   1776   1778     1  0.0000000  1.2552000  3
   1770   1782   1794   1795     1  0.0000000  0.6508444  3
   1770   1782   1794   1796     1  0.0000000  0.6508444  3
   1771   1770   1769   1773     1  0.0000000  1.2552000  3
   1771   1770   1769   1776     1  0.0000000  1.2552000  3
   1771   1770   1782   1794     1  0.0000000  0.6508444  3
   1771   1770   1782   1783     1  0.0000000  0.6508444  3
   1771   1770   1782   1784     1  0.0000000  0.6508444  3
   1772   1770   1769   1773     1  0.0000000  1.2552000  3
   1772   1770   1769   1776     1  0.0000000  1.2552000  3
   1772   1770   1782   1794     1  0.0000000  0.6508444  3
   1772   1770   1782   1783     1  0.0000000  0.6508444  3
   1772   1770   1782   1784     1  0.0000000  0.6508444  3
   1773   1769   1776   1777     1  0.0000000  1.2552000  3
   1773   1769   1776   1778     1  0.0000000  1.2552000  3
   1773   1785   1791   1792     1  0.0000000  0.6508444  3
   1773   1785   1791   1793     1  0.0000000  0.6508444  3
   1774   1773   1769   1776     1  0.0000000  1.2552000  3
   1774   1773   1785   1791     1  0.0000000  0.6508444  3
   1774   1773   1785   1786     1  0.0000000  0.6508444  3
   1774   1773   1785   1787     1  0.0000000  0.6508444  3
   1775   1773   1769   1776     1  0.0000000  1.2552000  3
   1775   1773   1785   1791     1  0.0000000  0.6508444  3
   1775   1773   1785   1786     1  0.0000000  0.6508444  3
   1775   1773   1785   1787     1  0.0000000  0.6508444  3
   1776   1779   1788   1789     1  0.0000000  0.6508444  3
   1776   1779   1788   1790     1  0.0000000  0.6508444  3
   1777   1776   1779   1788     1  0.0000000  0.6508444  3
   1777   1776   1779   1780     1  0.0000000  0.6508444  3
   1777   1776   1779   1781     1  0.0000000  0.6508444  3
   1778   1776   1779   1788     1  0.0000000  0.6508444  3
   1778   1776   1779   1780     1  0.0000000  0.6508444  3
   1778   1776   1779   1781     1  0.0000000  0.6508444  3
   1780   1779   1788   1797     1  0.0000000  1.0460000  1
   1780   1779   1788   1797     1  0.0000000  0.0000000  3
   1780   1779   1788   1789     1  0.0000000  0.6508444  3
   1780   1779   1788   1790     1  0.0000000  0.6508444  3
   1781   1779   1788   1797     1  0.0000000  1.0460000  1
   1781   1779   1788   1797     1  0.0000000  0.0000000  3
   1781   1779   1788   1789     1  0.0000000  0.6508444  3
   1781   1779   1788   1790     1  0.0000000  0.6508444  3
   1783   1782   1794   3653     1  0.0000000  1.0460000  1
   1783   1782   1794   3653     1  0.0000000  0.0000000  3
   1783   1782   1794   1795     1  0.0000000  0.6508444  3
   1783   1782   1794   1796     1  0.0000000  0.6508444  3
   1784   1782   1794   3653     1  0.0000000  1.0460000  1
   1784   1782   1794   3653     1  0.0000000  0.0000000  3
   1784   1782   1794   1795     1  0.0000000  0.6508444  3
   1784   1782   1794   1796     1  0.0000000  0.6508444  3
   1786   1785   1791   3624     1  0.0000000  1.0460000  1
   1786   1785   1791   3624     1  0.0000000  0.0000000  3
   1786   1785   1791   1792     1  0.0000000  0.6508444  3
   1786   1785   1791   1793     1  0.0000000  0.6508444  3
   1787   1785   1791   3624     1  0.0000000  1.0460000  1
   1787   1785   1791   3624     1  0.0000000  0.0000000  3
   1787   1785   1791   1792     1  0.0000000  0.6508444  3
   1787   1785   1791   1793     1  0.0000000  0.6508444  3
   1791   3624   3615   3616     1  0.0000000  1.6038667  3
   1791   3624   3615   3617     1  0.0000000  1.6038667  3
   1792   1791   3624   3615     1  0.0000000  1.6038667  3
   1793   1791   3624   3615     1  0.0000000  1.6038667  3
   1794   3653   3644   3645     1  0.0000000  1.6038667  3
   1794   3653   3644   3646     1  0.0000000  1.6038667  3
   1795   1794   3653   3644     1  0.0000000  1.6038667  3
   1796   1794   3653   3644     1  0.0000000  1.6038667  3
   1798   1799   1811   1812     1  0.0000000  0.6508444  3
   1798   1799   1811   1813     1  0.0000000  0.6508444  3
   1798   1802   1814   1815     1  0.0000000  0.6508444  3
   1798   1802   1814   1816     1  0.0000000  0.6508444  3
   1798   1805   1808   1809     1  0.0000000  0.6508444  3
   1798   1805   1808   1810     1  0.0000000  0.6508444  3
   1799   1798   1802   1803     1  0.0000000  1.2552000  3
   1799   1798   1802   1804     1  0.0000000  1.2552000  3
   1799   1798   1805   1806     1  0.0000000  1.2552000  3
   1799   1798   1805   1807     1  0.0000000  1.2552000  3
   1799   1811   1823   1824     1  0.0000000  0.6508444  3
   1799   1811   1823   1825     1  0.0000000  0.6508444  3
   1800   1799   1798   1802     1  0.0000000  1.2552000  3
   1800   1799   1798   1805     1  0.0000000  1.2552000  3
   1800   1799   1811   1823     1  0.0000000  0.6508444  3
   1800   1799   1811   1812     1  0.0000000  0.6508444  3
   1800   1799   1811   1813     1  0.0000000  0.6508444  3
   1801   1799   1798   1802     1  0.0000000  1.2552000  3
   1801   1799   1798   1805     1  0.0000000  1.2552000  3
   1801   1799   1811   1823     1  0.0000000  0.6508444  3
   1801   1799   1811   1812     1  0.0000000  0.6508444  3
   1801   1799   1811   1813     1  0.0000000  0.6508444  3
   1802   1798   1805   1806     1  0.0000000  1.2552000  3
   1802   1798   1805   1807     1  0.0000000  1.2552000  3
   1802   1814   1820   1821     1  0.0000000  0.6508444  3
   1802   1814   1820   1822     1  0.0000000  0.6508444  3
   1803   1802   1798   1805     1  0.0000000  1.2552000  3
   1803   1802   1814   1820     1  0.0000000  0.6508444  3
   1803   1802   1814   1815     1  0.0000000  0.6508444  3
   1803   1802   1814   1816     1  0.0000000  0.6508444  3
   1804   1802   1798   1805     1  0.0000000  1.2552000  3
   1804   1802   1814   1820     1  0.0000000  0.6508444  3
   1804   1802   1814   1815     1  0.0000000  0.6508444  3
   1804   1802   1814   1816     1  0.0000000  0.6508444  3
   1805   1808   1817   1818     1  0.0000000  0.6508444  3
   1805   1808   1817   1819     1  0.0000000  0.6508444  3
   1806   1805   1808   1817     1  0.0000000  0.6508444  3
   1806   1805   1808   1809     1  0.0000000  0.6508444  3
   1806   1805   1808   1810     1  0.0000000  0.6508444  3
   1807   1805   1808   1817     1  0.0000000  0.6508444  3
   1807   1805   1808   1809     1  0.0000000  0.6508444  3
   1807   1805   1808   1810     1  0.0000000  0.6508444  3
   1809   1808   1817   1826     1  0.0000000  1.0460000  1
   1809   1808   1817   1826     1  0.0000000  0.0000000  3
   1809   1808   1817   1818     1  0.0000000  0.6508444  3
   1809   1808   1817   1819     1  0.0000000  0.6508444  3
   1810   1808   1817   1826     1  0.0000000  1.0460000  1
   1810   1808   1817   1826     1  0.0000000  0.0000000  3
   1810   1808   1817   1818     1  0.0000000  0.6508444  3
   1810   1808   1817   1819     1  0.0000000  0.6508444  3
   1812   1811   1823   3715     1  0.0000000  1.0460000  1
   1812   1811   1823   3715     1  0.0000000  0.0000000  3
   1812   1811   1823   1824     1  0.0000000  0.6508444  3
   1812   1811   1823   1825     1  0.0000000  0.6508444  3
   1813   1811   1823   3715     1  0.0000000  1.0460000  1
   1813   1811   1823   3715     1  0.0000000  0.0000000  3
   1813   1811   1823   1824     1  0.0000000  0.6508444  3
   1813   1811   1823   1825     1  0.0000000  0.6508444  3
   1815   1814   1820   3684     1  0.0000000  1.0460000  1
   1815   1814   1820   3684     1  0.0000000  0.0000000  3
   1815   1814   1820   1821     1  0.0000000  0.6508444  3
   1815   1814   1820   1822     1  0.0000000  0.6508444  3
   1816   1814   1820   3684     1  0.0000000  1.0460000  1
   1816   1814   1820   3684     1  0.0000000  0.0000000  3
   1816   1814   1820   1821     1  0.0000000  0.6508444  3
   1816   1814   1820   1822     1  0.0000000  0.6508444  3
   1820   3684   3654   3655     1  0.0000000  1.6038667  3
   1820   3684   3654   3656     1  0.0000000  1.6038667  3
   1821   1820   3684   3654     1  0.0000000  1.6038667  3
   1822   1820   3684   3654     1  0.0000000  1.6038667  3
   1823   3715   3685   3686     1  0.0000000  1.6038667  3
   1823   3715   3685   3687     1  0.0000000  1.6038667  3
   1824   1823   3715   3685     1  0.0000000  1.6038667  3
   1825   1823   3715   3685     1  0.0000000  1.6038667  3
   1827   1828   1840   1841     1  0.0000000  0.6508444  3
   1827   1828   1840   1842     1  0.0000000  0.6508444  3
   1827   1831   1843   1844     1  0.0000000  0.6508444  3
   1827   1831   1843   1845     1  0.0000000  0.6508444  3
   1827   1834   1837   1838     1  0.0000000  0.6508444  3
   1827   1834   1837   1839     1  0.0000000  0.6508444  3
   1828   1827   1831   1832     1  0.0000000  1.2552000  3
   1828   1827   1831   1833     1  0.0000000  1.2552000  3
   1828   1827   1834   1835     1  0.0000000  1.2552000  3
   1828   1827   1834   1836     1  0.0000000  1.2552000  3
   1828   1840   1852   1853     1  0.0000000  0.6508444  3
   1828   1840   1852   1854     1  0.0000000  0.6508444  3
   1829   1828   1827   1831     1  0.0000000  1.2552000  3
   1829   1828   1827   1834     1  0.0000000  1.2552000  3
   1829   1828   1840   1852     1  0.0000000  0.6508444  3
   1829   1828   1840   1841     1  0.0000000  0.6508444  3
   1829   1828   1840   1842     1  0.0000000  0.6508444  3
   1830   1828   1827   1831     1  0.0000000  1.2552000  3
   1830   1828   1827   1834     1  0.0000000  1.2552000  3
   1830   1828   1840   1852     1  0.0000000  0.6508444  3
   1830   1828   1840   1841     1  0.0000000  0.6508444  3
   1830   1828   1840   1842     1  0.0000000  0.6508444  3
   1831   1827   1834   1835     1  0.0000000  1.2552000  3
   1831   1827   1834   1836     1  0.0000000  1.2552000  3
   1831   1843   1849   1850     1  0.0000000  0.6508444  3
   1831   1843   1849   1851     1  0.0000000  0.6508444  3
   1832   1831   1827   1834     1  0.0000000  1.2552000  3
   1832   1831   1843   1849     1  0.0000000  0.6508444  3
   1832   1831   1843   1844     1  0.0000000  0.6508444  3
   1832   1831   1843   1845     1  0.0000000  0.6508444  3
   1833   1831   1827   1834     1  0.0000000  1.2552000  3
   1833   1831   1843   1849     1  0.0000000  0.6508444  3
   1833   1831   1843   1844     1  0.0000000  0.6508444  3
   1833   1831   1843   1845     1  0.0000000  0.6508444  3
   1834   1837   1846   1847     1  0.0000000  0.6508444  3
   1834   1837   1846   1848     1  0.0000000  0.6508444  3
   1835   1834   1837   1846     1  0.0000000  0.6508444  3
   1835   1834   1837   1838     1  0.0000000  0.6508444  3
   1835   1834   1837   1839     1  0.0000000  0.6508444  3
   1836   1834   1837   1846     1  0.0000000  0.6508444  3
   1836   1834   1837   1838     1  0.0000000  0.6508444  3
   1836   1834   1837   1839     1  0.0000000  0.6508444  3
   1838   1837   1846   1855     1  0.0000000  1.0460000  1
   1838   1837   1846   1855     1  0.0000000  0.0000000  3
   1838   1837   1846   1847     1  0.0000000  0.6508444  3
   1838   1837   1846   1848     1  0.0000000  0.6508444  3
   1839   1837   1846   1855     1  0.0000000  1.0460000  1
   1839   1837   1846   1855     1  0.0000000  0.0000000  3
   1839   1837   1846   1847     1  0.0000000  0.6508444  3
   1839   1837   1846   1848     1  0.0000000  0.6508444  3
   1841   1840   1852   3777     1  0.0000000  1.0460000  1
   1841   1840   1852   3777     1  0.0000000  0.0000000  3
   1841   1840   1852   1853     1  0.0000000  0.6508444  3
   1841   1840   1852   1854     1  0.0000000  0.6508444  3
   1842   1840   1852   3777     1  0.0000000  1.0460000  1
   1842   1840   1852   3777     1  0.0000000  0.0000000  3
   1842   1840   1852   1853     1  0.0000000  0.6508444  3
   1842   1840   1852   1854     1  0.0000000  0.6508444  3
   1844   1843   1849   3746     1  0.0000000  1.0460000  1
   1844   1843   1849   3746     1  0.0000000  0.0000000  3
   1844   1843   1849   1850     1  0.0000000  0.6508444  3
   1844   1843   1849   1851     1  0.0000000  0.6508444  3
   1845   1843   1849   3746     1  0.0000000  1.0460000  1
   1845   1843   1849   3746     1  0.0000000  0.0000000  3
   1845   1843   1849   1850     1  0.0000000  0.6508444  3
   1845   1843   1849   1851     1  0.0000000  0.6508444  3
   1849   3746   3716   3717     1  0.0000000  1.6038667  3
   1849   3746   3716   3718     1  0.0000000  1.6038667  3
   1850   1849   3746   3716     1  0.0000000  1.6038667  3
   1851   1849   3746   3716     1  0.0000000  1.6038667  3
   1852   3777   3747   3748     1  0.0000000  1.6038667  3
   1852   3777   3747   3749     1  0.0000000  1.6038667  3
   1853   1852   3777   3747     1  0.0000000  1.6038667  3
   1854   1852   3777   3747     1  0.0000000  1.6038667  3
   1856   1857   1869   1870     1  0.0000000  0.6508444  3
   1856   1857   1869   1871     1  0.0000000  0.6508444  3
   1856   1860   1872   1873     1  0.0000000  0.6508444  3
   1856   1860   1872   1874     1  0.0000000  0.6508444  3
   1856   1863   1866   1867     1  0.0000000  0.6508444  3
   1856   1863   1866   1868     1  0.0000000  0.6508444  3
   1857   1856   1860   1861     1  0.0000000  1.2552000  3
   1857   1856   1860   1862     1  0.0000000  1.2552000  3
   1857   1856   1863   1864     1  0.0000000  1.2552000  3
   1857   1856   1863   1865     1  0.0000000  1.2552000  3
   1857   1869   1881   1882     1  0.0000000  0.6508444  3
   1857   1869   1881   1883     1  0.0000000  0.6508444  3
   1858   1857   1856   1860     1  0.0000000  1.2552000  3
   1858   1857   1856   1863     1  0.0000000  1.2552000  3
   1858   1857   1869   1881     1  0.0000000  0.6508444  3
   1858   1857   1869   1870     1  0.0000000  0.6508444  3
   1858   1857   1869   1871     1  0.0000000  0.6508444  3
   1859   1857   1856   1860     1  0.0000000  1.2552000  3
   1859   1857   1856   1863     1  0.0000000  1.2552000  3
   1859   1857   1869   1881     1  0.0000000  0.6508444  3
   1859   1857   1869   1870     1  0.0000000  0.6508444  3
   1859   1857   1869   1871     1  0.0000000  0.6508444  3
   1860   1856   1863   1864     1  0.0000000  1.2552000  3
   1860   1856   1863   1865     1  0.0000000  1.2552000  3
   1860   1872   1878   1879     1  0.0000000  0.6508444  3
   1860   1872   1878   1880     1  0.0000000  0.6508444  3
   1861   1860   1856   1863     1  0.0000000  1.2552000  3
   1861   1860   1872   1878     1  0.0000000  0.6508444  3
   1861   1860   1872   1873     1  0.0000000  0.6508444  3
   1861   1860   1872   1874     1  0.0000000  0.6508444  3
   1862   1860   1856   1863     1  0.0000000  1.2552000  3
   1862   1860   1872   1878     1  0.0000000  0.6508444  3
   1862   1860   1872   1873     1  0.0000000  0.6508444  3
   1862   1860   1872   1874     1  0.0000000  0.6508444  3
   1863   1866   1875   1876     1  0.0000000  0.6508444  3
   1863   1866   1875   1877     1  0.0000000  0.6508444  3
   1864   1863   1866   1875     1  0.0000000  0.6508444  3
   1864   1863   1866   1867     1  0.0000000  0.6508444  3
   1864   1863   1866   1868     1  0.0000000  0.6508444  3
   1865   1863   1866   1875     1  0.0000000  0.6508444  3
   1865   1863   1866   1867     1  0.0000000  0.6508444  3
   1865   1863   1866   1868     1  0.0000000  0.6508444  3
   1867   1866   1875   1884     1  0.0000000  1.0460000  1
   1867   1866   1875   1884     1  0.0000000  0.0000000  3
   1867   1866   1875   1876     1  0.0000000  0.6508444  3
   1867   1866   1875   1877     1  0.0000000  0.6508444  3
   1868   1866   1875   1884     1  0.0000000  1.0460000  1
   1868   1866   1875   1884     1  0.0000000  0.0000000  3
   1868   1866   1875   1876     1  0.0000000  0.6508444  3
   1868   1866   1875   1877     1  0.0000000  0.6508444  3
   1870   1869   1881   3839     1  0.0000000  1.0460000  1
   1870   1869   1881   3839     1  0.0000000  0.0000000  3
   1870   1869   1881   1882     1  0.0000000  0.6508444  3
   1870   1869   1881   1883     1  0.0000000  0.6508444  3
   1871   1869   1881   3839     1  0.0000000  1.0460000  1
   1871   1869   1881   3839     1  0.0000000  0.0000000  3
   1871   1869   1881   1882     1  0.0000000  0.6508444  3
   1871   1869   1881   1883     1  0.0000000  0.6508444  3
   1873   1872   1878   3808     1  0.0000000  1.0460000  1
   1873   1872   1878   3808     1  0.0000000  0.0000000  3
   1873   1872   1878   1879     1  0.0000000  0.6508444  3
   1873   1872   1878   1880     1  0.0000000  0.6508444  3
   1874   1872   1878   3808     1  0.0000000  1.0460000  1
   1874   1872   1878   3808     1  0.0000000  0.0000000  3
   1874   1872   1878   1879     1  0.0000000  0.6508444  3
   1874   1872   1878   1880     1  0.0000000  0.6508444  3
   1878   3808   3778   3779     1  0.0000000  1.6038667  3
   1878   3808   3778   3780     1  0.0000000  1.6038667  3
   1879   1878   3808   3778     1  0.0000000  1.6038667  3
   1880   1878   3808   3778     1  0.0000000  1.6038667  3
   1881   3839   3809   3810     1  0.0000000  1.6038667  3
   1881   3839   3809   3811     1  0.0000000  1.6038667  3
   1882   1881   3839   3809     1  0.0000000  1.6038667  3
   1883   1881   3839   3809     1  0.0000000  1.6038667  3
   1885   1886   1898   1899     1  0.0000000  0.6508444  3
   1885   1886   1898   1900     1  0.0000000  0.6508444  3
   1885   1889   1901   1902     1  0.0000000  0.6508444  3
   1885   1889   1901   1903     1  0.0000000  0.6508444  3
   1885   1892   1895   1896     1  0.0000000  0.6508444  3
   1885   1892   1895   1897     1  0.0000000  0.6508444  3
   1886   1885   1889   1890     1  0.0000000  1.2552000  3
   1886   1885   1889   1891     1  0.0000000  1.2552000  3
   1886   1885   1892   1893     1  0.0000000  1.2552000  3
   1886   1885   1892   1894     1  0.0000000  1.2552000  3
   1886   1898   1910   1911     1  0.0000000  0.6508444  3
   1886   1898   1910   1912     1  0.0000000  0.6508444  3
   1887   1886   1885   1889     1  0.0000000  1.2552000  3
   1887   1886   1885   1892     1  0.0000000  1.2552000  3
   1887   1886   1898   1910     1  0.0000000  0.6508444  3
   1887   1886   1898   1899     1  0.0000000  0.6508444  3
   1887   1886   1898   1900     1  0.0000000  0.6508444  3
   1888   1886   1885   1889     1  0.0000000  1.2552000  3
   1888   1886   1885   1892     1  0.0000000  1.2552000  3
   1888   1886   1898   1910     1  0.0000000  0.6508444  3
   1888   1886   1898   1899     1  0.0000000  0.6508444  3
   1888   1886   1898   1900     1  0.0000000  0.6508444  3
   1889   1885   1892   1893     1  0.0000000  1.2552000  3
   1889   1885   1892   1894     1  0.0000000  1.2552000  3
   1889   1901   1907   1908     1  0.0000000  0.6508444  3
   1889   1901   1907   1909     1  0.0000000  0.6508444  3
   1890   1889   1885   1892     1  0.0000000  1.2552000  3
   1890   1889   1901   1907     1  0.0000000  0.6508444  3
   1890   1889   1901   1902     1  0.0000000  0.6508444  3
   1890   1889   1901   1903     1  0.0000000  0.6508444  3
   1891   1889   1885   1892     1  0.0000000  1.2552000  3
   1891   1889   1901   1907     1  0.0000000  0.6508444  3
   1891   1889   1901   1902     1  0.0000000  0.6508444  3
   1891   1889   1901   1903     1  0.0000000  0.6508444  3
   1892   1895   1904   1905     1  0.0000000  0.6508444  3
   1892   1895   1904   1906     1  0.0000000  0.6508444  3
   1893   1892   1895   1904     1  0.0000000  0.6508444  3
   1893   1892   1895   1896     1  0.0000000  0.6508444  3
   1893   1892   1895   1897     1  0.0000000  0.6508444  3
   1894   1892   1895   1904     1  0.0000000  0.6508444  3
   1894   1892   1895   1896     1  0.0000000  0.6508444  3
   1894   1892   1895   1897     1  0.0000000  0.6508444  3
   1896   1895   1904   1913     1  0.0000000  1.0460000  1
   1896   1895   1904   1913     1  0.0000000  0.0000000  3
   1896   1895   1904   1905     1  0.0000000  0.6508444  3
   1896   1895   1904   1906     1  0.0000000  0.6508444  3
   1897   1895   1904   1913     1  0.0000000  1.0460000  1
   1897   1895   1904   1913     1  0.0000000  0.0000000  3
   1897   1895   1904   1905     1  0.0000000  0.6508444  3
   1897   1895   1904   1906     1  0.0000000  0.6508444  3
   1899   1898   1910   3901     1  0.0000000  1.0460000  1
   1899   1898   1910   3901     1  0.0000000  0.0000000  3
   1899   1898   1910   1911     1  0.0000000  0.6508444  3
   1899   1898   1910   1912     1  0.0000000  0.6508444  3
   1900   1898   1910   3901     1  0.0000000  1.0460000  1
   1900   1898   1910   3901     1  0.0000000  0.0000000  3
   1900   1898   1910   1911     1  0.0000000  0.6508444  3
   1900   1898   1910   1912     1  0.0000000  0.6508444  3
   1902   1901   1907   3870     1  0.0000000  1.0460000  1
   1902   1901   1907   3870     1  0.0000000  0.0000000  3
   1902   1901   1907   1908     1  0.0000000  0.6508444  3
   1902   1901   1907   1909     1  0.0000000  0.6508444  3
   1903   1901   1907   3870     1  0.0000000  1.0460000  1
   1903   1901   1907   3870     1  0.0000000  0.0000000  3
   1903   1901   1907   1908     1  0.0000000  0.6508444  3
   1903   1901   1907   1909     1  0.0000000  0.6508444  3
   1907   3870   3840   3841     1  0.0000000  1.6038667  3
   1907   3870   3840   3842     1  0.0000000  1.6038667  3
   1908   1907   3870   3840     1  0.0000000  1.6038667  3
   1909   1907   3870   3840     1  0.0000000  1.6038667  3
   1910   3901   3871   3872     1  0.0000000  1.6038667  3
   1910   3901   3871   3873     1  0.0000000  1.6038667  3
   1911   1910   3901   3871     1  0.0000000  1.6038667  3
   1912   1910   3901   3871     1  0.0000000  1.6038667  3
   1914   1915   1927   1928     1  0.0000000  0.6508444  3
   1914   1915   1927   1929     1  0.0000000  0.6508444  3
   1914   1918   1930   1931     1  0.0000000  0.6508444  3
   1914   1918   1930   1932     1  0.0000000  0.6508444  3
   1914   1921   1924   1925     1  0.0000000  0.6508444  3
   1914   1921   1924   1926     1  0.0000000  0.6508444  3
   1915   1914   1918   1919     1  0.0000000  1.2552000  3
   1915   1914   1918   1920     1  0.0000000  1.2552000  3
   1915   1914   1921   1922     1  0.0000000  1.2552000  3
   1915   1914   1921   1923     1  0.0000000  1.2552000  3
   1915   1927   1939   1940     1  0.0000000  0.6508444  3
   1915   1927   1939   1941     1  0.0000000  0.6508444  3
   1916   1915   1914   1918     1  0.0000000  1.2552000  3
   1916   1915   1914   1921     1  0.0000000  1.2552000  3
   1916   1915   1927   1939     1  0.0000000  0.6508444  3
   1916   1915   1927   1928     1  0.0000000  0.6508444  3
   1916   1915   1927   1929     1  0.0000000  0.6508444  3
   1917   1915   1914   1918     1  0.0000000  1.2552000  3
   1917   1915   1914   1921     1  0.0000000  1.2552000  3
   1917   1915   1927   1939     1  0.0000000  0.6508444  3
   1917   1915   1927   1928     1  0.0000000  0.6508444  3
   1917   1915   1927   1929     1  0.0000000  0.6508444  3
   1918   1914   1921   1922     1  0.0000000  1.2552000  3
   1918   1914   1921   1923     1  0.0000000  1.2552000  3
   1918   1930   1936   1937     1  0.0000000  0.6508444  3
   1918   1930   1936   1938     1  0.0000000  0.6508444  3
   1919   1918   1914   1921     1  0.0000000  1.2552000  3
   1919   1918   1930   1936     1  0.0000000  0.6508444  3
   1919   1918   1930   1931     1  0.0000000  0.6508444  3
   1919   1918   1930   1932     1  0.0000000  0.6508444  3
   1920   1918   1914   1921     1  0.0000000  1.2552000  3
   1920   1918   1930   1936     1  0.0000000  0.6508444  3
   1920   1918   1930   1931     1  0.0000000  0.6508444  3
   1920   1918   1930   1932     1  0.0000000  0.6508444  3
   1921   1924   1933   1934     1  0.0000000  0.6508444  3
   1921   1924   1933   1935     1  0.0000000  0.6508444  3
   1922   1921   1924   1933     1  0.0000000  0.6508444  3
   1922   1921   1924   1925     1  0.0000000  0.6508444  3
   1922   1921   1924   1926     1  0.0000000  0.6508444  3
   1923   1921   1924   1933     1  0.0000000  0.6508444  3
   1923   1921   1924   1925     1  0.0000000  0.6508444  3
   1923   1921   1924   1926     1  0.0000000  0.6508444  3
   1925   1924   1933   1942     1  0.0000000  1.0460000  1
   1925   1924   1933   1942     1  0.0000000  0.0000000  3
   1925   1924   1933   1934     1  0.0000000  0.6508444  3
   1925   1924   1933   1935     1  0.0000000  0.6508444  3
   1926   1924   1933   1942     1  0.0000000  1.0460000  1
   1926   1924   1933   1942     1  0.0000000  0.0000000  3
   1926   1924   1933   1934     1  0.0000000  0.6508444  3
   1926   1924   1933   1935     1  0.0000000  0.6508444  3
   1928   1927   1939   3963     1  0.0000000  1.0460000  1
   1928   1927   1939   3963     1  0.0000000  0.0000000  3
   1928   1927   1939   1940     1  0.0000000  0.6508444  3
   1928   1927   1939   1941     1  0.0000000  0.6508444  3
   1929   1927   1939   3963     1  0.0000000  1.0460000  1
   1929   1927   1939   3963     1  0.0000000  0.0000000  3
   1929   1927   1939   1940     1  0.0000000  0.6508444  3
   1929   1927   1939   1941     1  0.0000000  0.6508444  3
   1931   1930   1936   3932     1  0.0000000  1.0460000  1
   1931   1930   1936   3932     1  0.0000000  0.0000000  3
   1931   1930   1936   1937     1  0.0000000  0.6508444  3
   1931   1930   1936   1938     1  0.0000000  0.6508444  3
   1932   1930   1936   3932     1  0.0000000  1.0460000  1
   1932   1930   1936   3932     1  0.0000000  0.0000000  3
   1932   1930   1936   1937     1  0.0000000  0.6508444  3
   1932   1930   1936   1938     1  0.0000000  0.6508444  3
   1936   3932   3902   3903     1  0.0000000  1.6038667  3
   1936   3932   3902   3904     1  0.0000000  1.6038667  3
   1937   1936   3932   3902     1  0.0000000  1.6038667  3
   1938   1936   3932   3902     1  0.0000000  1.6038667  3
   1939   3963   3933   3934     1  0.0000000  1.6038667  3
   1939   3963   3933   3935     1  0.0000000  1.6038667  3
   1940   1939   3963   3933     1  0.0000000  1.6038667  3
   1941   1939   3963   3933     1  0.0000000  1.6038667  3
   1943   1944   1956   1957     1  0.0000000  0.6508444  3
   1943   1944   1956   1958     1  0.0000000  0.6508444  3
   1943   1947   1959   1960     1  0.0000000  0.6508444  3
   1943   1947   1959   1961     1  0.0000000  0.6508444  3
   1943   1950   1953   1954     1  0.0000000  0.6508444  3
   1943   1950   1953   1955     1  0.0000000  0.6508444  3
   1944   1943   1947   1948     1  0.0000000  1.2552000  3
   1944   1943   1947   1949     1  0.0000000  1.2552000  3
   1944   1943   1950   1951     1  0.0000000  1.2552000  3
   1944   1943   1950   1952     1  0.0000000  1.2552000  3
   1944   1956   1968   1969     1  0.0000000  0.6508444  3
   1944   1956   1968   1970     1  0.0000000  0.6508444  3
   1945   1944   1943   1947     1  0.0000000  1.2552000  3
   1945   1944   1943   1950     1  0.0000000  1.2552000  3
   1945   1944   1956   1968     1  0.0000000  0.6508444  3
   1945   1944   1956   1957     1  0.0000000  0.6508444  3
   1945   1944   1956   1958     1  0.0000000  0.6508444  3
   1946   1944   1943   1947     1  0.0000000  1.2552000  3
   1946   1944   1943   1950     1  0.0000000  1.2552000  3
   1946   1944   1956   1968     1  0.0000000  0.6508444  3
   1946   1944   1956   1957     1  0.0000000  0.6508444  3
   1946   1944   1956   1958     1  0.0000000  0.6508444  3
   1947   1943   1950   1951     1  0.0000000  1.2552000  3
   1947   1943   1950   1952     1  0.0000000  1.2552000  3
   1947   1959   1965   1966     1  0.0000000  0.6508444  3
   1947   1959   1965   1967     1  0.0000000  0.6508444  3
   1948   1947   1943   1950     1  0.0000000  1.2552000  3
   1948   1947   1959   1965     1  0.0000000  0.6508444  3
   1948   1947   1959   1960     1  0.0000000  0.6508444  3
   1948   1947   1959   1961     1  0.0000000  0.6508444  3
   1949   1947   1943   1950     1  0.0000000  1.2552000  3
   1949   1947   1959   1965     1  0.0000000  0.6508444  3
   1949   1947   1959   1960     1  0.0000000  0.6508444  3
   1949   1947   1959   1961     1  0.0000000  0.6508444  3
   1950   1953   1962   1963     1  0.0000000  0.6508444  3
   1950   1953   1962   1964     1  0.0000000  0.6508444  3
   1951   1950   1953   1962     1  0.0000000  0.6508444  3
   1951   1950   1953   1954     1  0.0000000  0.6508444  3
   1951   1950   1953   1955     1  0.0000000  0.6508444  3
   1952   1950   1953   1962     1  0.0000000  0.6508444  3
   1952   1950   1953   1954     1  0.0000000  0.6508444  3
   1952   1950   1953   1955     1  0.0000000  0.6508444  3
   1954   1953   1962   1971     1  0.0000000  1.0460000  1
   1954   1953   1962   1971     1  0.0000000  0.0000000  3
   1954   1953   1962   1963     1  0.0000000  0.6508444  3
   1954   1953   1962   1964     1  0.0000000  0.6508444  3
   1955   1953   1962   1971     1  0.0000000  1.0460000  1
   1955   1953   1962   1971     1  0.0000000  0.0000000  3
   1955   1953   1962   1963     1  0.0000000  0.6508444  3
   1955   1953   1962   1964     1  0.0000000  0.6508444  3
   1957   1956   1968   4025     1  0.0000000  1.0460000  1
   1957   1956   1968   4025     1  0.0000000  0.0000000  3
   1957   1956   1968   1969     1  0.0000000  0.6508444  3
   1957   1956   1968   1970     1  0.0000000  0.6508444  3
   1958   1956   1968   4025     1  0.0000000  1.0460000  1
   1958   1956   1968   4025     1  0.0000000  0.0000000  3
   1958   1956   1968   1969     1  0.0000000  0.6508444  3
   1958   1956   1968   1970     1  0.0000000  0.6508444  3
   1960   1959   1965   3994     1  0.0000000  1.0460000  1
   1960   1959   1965   3994     1  0.0000000  0.0000000  3
   1960   1959   1965   1966     1  0.0000000  0.6508444  3
   1960   1959   1965   1967     1  0.0000000  0.6508444  3
   1961   1959   1965   3994     1  0.0000000  1.0460000  1
   1961   1959   1965   3994     1  0.0000000  0.0000000  3
   1961   1959   1965   1966     1  0.0000000  0.6508444  3
   1961   1959   1965   1967     1  0.0000000  0.6508444  3
   1965   3994   3964   3965     1  0.0000000  1.6038667  3
   1965   3994   3964   3966     1  0.0000000  1.6038667  3
   1966   1965   3994   3964     1  0.0000000  1.6038667  3
   1967   1965   3994   3964     1  0.0000000  1.6038667  3
   1968   4025   3995   3996     1  0.0000000  1.6038667  3
   1968   4025   3995   3997     1  0.0000000  1.6038667  3
   1969   1968   4025   3995     1  0.0000000  1.6038667  3
   1970   1968   4025   3995     1  0.0000000  1.6038667  3
   1972   1973   1985   1986     1  0.0000000  0.6508444  3
   1972   1973   1985   1987     1  0.0000000  0.6508444  3
   1972   1976   1988   1989     1  0.0000000  0.6508444  3
   1972   1976   1988   1990     1  0.0000000  0.6508444  3
   1972   1979   1982   1983     1  0.0000000  0.6508444  3
   1972   1979   1982   1984     1  0.0000000  0.6508444  3
   1973   1972   1976   1977     1  0.0000000  1.2552000  3
   1973   1972   1976   1978     1  0.0000000  1.2552000  3
   1973   1972   1979   1980     1  0.0000000  1.2552000  3
   1973   1972   1979   1981     1  0.0000000  1.2552000  3
   1973   1985   1997   1998     1  0.0000000  0.6508444  3
   1973   1985   1997   1999     1  0.0000000  0.6508444  3
   1974   1973   1972   1976     1  0.0000000  1.2552000  3
   1974   1973   1972   1979     1  0.0000000  1.2552000  3
   1974   1973   1985   1997     1  0.0000000  0.6508444  3
   1974   1973   1985   1986     1  0.0000000  0.6508444  3
   1974   1973   1985   1987     1  0.0000000  0.6508444  3
   1975   1973   1972   1976     1  0.0000000  1.2552000  3
   1975   1973   1972   1979     1  0.0000000  1.2552000  3
   1975   1973   1985   1997     1  0.0000000  0.6508444  3
   1975   1973   1985   1986     1  0.0000000  0.6508444  3
   1975   1973   1985   1987     1  0.0000000  0.6508444  3
   1976   1972   1979   1980     1  0.0000000  1.2552000  3
   1976   1972   1979   1981     1  0.0000000  1.2552000  3
   1976   1988   1994   1995     1  0.0000000  0.6508444  3
   1976   1988   1994   1996     1  0.0000000  0.6508444  3
   1977   1976   1972   1979     1  0.0000000  1.2552000  3
   1977   1976   1988   1994     1  0.0000000  0.6508444  3
   1977   1976   1988   1989     1  0.0000000  0.6508444  3
   1977   1976   1988   1990     1  0.0000000  0.6508444  3
   1978   1976   1972   1979     1  0.0000000  1.2552000  3
   1978   1976   1988   1994     1  0.0000000  0.6508444  3
   1978   1976   1988   1989     1  0.0000000  0.6508444  3
   1978   1976   1988   1990     1  0.0000000  0.6508444  3
   1979   1982   1991   1992     1  0.0000000  0.6508444  3
   1979   1982   1991   1993     1  0.0000000  0.6508444  3
   1980   1979   1982   1991     1  0.0000000  0.6508444  3
   1980   1979   1982   1983     1  0.0000000  0.6508444  3
   1980   1979   1982   1984     1  0.0000000  0.6508444  3
   1981   1979   1982   1991     1  0.0000000  0.6508444  3
   1981   1979   1982   1983     1  0.0000000  0.6508444  3
   1981   1979   1982   1984     1  0.0000000  0.6508444  3
   1983   1982   1991   2000     1  0.0000000  1.0460000  1
   1983   1982   1991   2000     1  0.0000000  0.0000000  3
   1983   1982   1991   1992     1  0.0000000  0.6508444  3
   1983   1982   1991   1993     1  0.0000000  0.6508444  3
   1984   1982   1991   2000     1  0.0000000  1.0460000  1
   1984   1982   1991   2000     1  0.0000000  0.0000000  3
   1984   1982   1991   1992     1  0.0000000  0.6508444  3
   1984   1982   1991   1993     1  0.0000000  0.6508444  3
   1986   1985   1997   4087     1  0.0000000  1.0460000  1
   1986   1985   1997   4087     1  0.0000000  0.0000000  3
   1986   1985   1997   1998     1  0.0000000  0.6508444  3
   1986   1985   1997   1999     1  0.0000000  0.6508444  3
   1987   1985   1997   4087     1  0.0000000  1.0460000  1
   1987   1985   1997   4087     1  0.0000000  0.0000000  3
   1987   1985   1997   1998     1  0.0000000  0.6508444  3
   1987   1985   1997   1999     1  0.0000000  0.6508444  3
   1989   1988   1994   4056     1  0.0000000  1.0460000  1
   1989   1988   1994   4056     1  0.0000000  0.0000000  3
   1989   1988   1994   1995     1  0.0000000  0.6508444  3
   1989   1988   1994   1996     1  0.0000000  0.6508444  3
   1990   1988   1994   4056     1  0.0000000  1.0460000  1
   1990   1988   1994   4056     1  0.0000000  0.0000000  3
   1990   1988   1994   1995     1  0.0000000  0.6508444  3
   1990   1988   1994   1996     1  0.0000000  0.6508444  3
   1994   4056   4026   4027     1  0.0000000  1.6038667  3
   1994   4056   4026   4028     1  0.0000000  1.6038667  3
   1995   1994   4056   4026     1  0.0000000  1.6038667  3
   1996   1994   4056   4026     1  0.0000000  1.6038667  3
   1997   4087   4057   4058     1  0.0000000  1.6038667  3
   1997   4087   4057   4059     1  0.0000000  1.6038667  3
   1998   1997   4087   4057     1  0.0000000  1.6038667  3
   1999   1997   4087   4057     1  0.0000000  1.6038667  3
   2001   2002   2014   2015     1  0.0000000  0.6508444  3
   2001   2002   2014   2016     1  0.0000000  0.6508444  3
   2001   2005   2017   2018     1  0.0000000  0.6508444  3
   2001   2005   2017   2019     1  0.0000000  0.6508444  3
   2001   2008   2011   2012     1  0.0000000  0.6508444  3
   2001   2008   2011   2013     1  0.0000000  0.6508444  3
   2002   2001   2005   2006     1  0.0000000  1.2552000  3
   2002   2001   2005   2007     1  0.0000000  1.2552000  3
   2002   2001   2008   2009     1  0.0000000  1.2552000  3
   2002   2001   2008   2010     1  0.0000000  1.2552000  3
   2002   2014   2026   2027     1  0.0000000  0.6508444  3
   2002   2014   2026   2028     1  0.0000000  0.6508444  3
   2003   2002   2001   2005     1  0.0000000  1.2552000  3
   2003   2002   2001   2008     1  0.0000000  1.2552000  3
   2003   2002   2014   2026     1  0.0000000  0.6508444  3
   2003   2002   2014   2015     1  0.0000000  0.6508444  3
   2003   2002   2014   2016     1  0.0000000  0.6508444  3
   2004   2002   2001   2005     1  0.0000000  1.2552000  3
   2004   2002   2001   2008     1  0.0000000  1.2552000  3
   2004   2002   2014   2026     1  0.0000000  0.6508444  3
   2004   2002   2014   2015     1  0.0000000  0.6508444  3
   2004   2002   2014   2016     1  0.0000000  0.6508444  3
   2005   2001   2008   2009     1  0.0000000  1.2552000  3
   2005   2001   2008   2010     1  0.0000000  1.2552000  3
   2005   2017   2023   2024     1  0.0000000  0.6508444  3
   2005   2017   2023   2025     1  0.0000000  0.6508444  3
   2006   2005   2001   2008     1  0.0000000  1.2552000  3
   2006   2005   2017   2023     1  0.0000000  0.6508444  3
   2006   2005   2017   2018     1  0.0000000  0.6508444  3
   2006   2005   2017   2019     1  0.0000000  0.6508444  3
   2007   2005   2001   2008     1  0.0000000  1.2552000  3
   2007   2005   2017   2023     1  0.0000000  0.6508444  3
   2007   2005   2017   2018     1  0.0000000  0.6508444  3
   2007   2005   2017   2019     1  0.0000000  0.6508444  3
   2008   2011   2020   2021     1  0.0000000  0.6508444  3
   2008   2011   2020   2022     1  0.0000000  0.6508444  3
   2009   2008   2011   2020     1  0.0000000  0.6508444  3
   2009   2008   2011   2012     1  0.0000000  0.6508444  3
   2009   2008   2011   2013     1  0.0000000  0.6508444  3
   2010   2008   2011   2020     1  0.0000000  0.6508444  3
   2010   2008   2011   2012     1  0.0000000  0.6508444  3
   2010   2008   2011   2013     1  0.0000000  0.6508444  3
   2012   2011   2020   2029     1  0.0000000  1.0460000  1
   2012   2011   2020   2029     1  0.0000000  0.0000000  3
   2012   2011   2020   2021     1  0.0000000  0.6508444  3
   2012   2011   2020   2022     1  0.0000000  0.6508444  3
   2013   2011   2020   2029     1  0.0000000  1.0460000  1
   2013   2011   2020   2029     1  0.0000000  0.0000000  3
   2013   2011   2020   2021     1  0.0000000  0.6508444  3
   2013   2011   2020   2022     1  0.0000000  0.6508444  3
   2015   2014   2026   4149     1  0.0000000  1.0460000  1
   2015   2014   2026   4149     1  0.0000000  0.0000000  3
   2015   2014   2026   2027     1  0.0000000  0.6508444  3
   2015   2014   2026   2028     1  0.0000000  0.6508444  3
   2016   2014   2026   4149     1  0.0000000  1.0460000  1
   2016   2014   2026   4149     1  0.0000000  0.0000000  3
   2016   2014   2026   2027     1  0.0000000  0.6508444  3
   2016   2014   2026   2028     1  0.0000000  0.6508444  3
   2018   2017   2023   4118     1  0.0000000  1.0460000  1
   2018   2017   2023   4118     1  0.0000000  0.0000000  3
   2018   2017   2023   2024     1  0.0000000  0.6508444  3
   2018   2017   2023   2025     1  0.0000000  0.6508444  3
   2019   2017   2023   4118     1  0.0000000  1.0460000  1
   2019   2017   2023   4118     1  0.0000000  0.0000000  3
   2019   2017   2023   2024     1  0.0000000  0.6508444  3
   2019   2017   2023   2025     1  0.0000000  0.6508444  3
   2023   4118   4088   4089     1  0.0000000  1.6038667  3
   2023   4118   4088   4090     1  0.0000000  1.6038667  3
   2024   2023   4118   4088     1  0.0000000  1.6038667  3
   2025   2023   4118   4088     1  0.0000000  1.6038667  3
   2026   4149   4119   4120     1  0.0000000  1.6038667  3
   2026   4149   4119   4121     1  0.0000000  1.6038667  3
   2027   2026   4149   4119     1  0.0000000  1.6038667  3
   2028   2026   4149   4119     1  0.0000000  1.6038667  3
   2030   2031   2043   2044     1  0.0000000  0.6508444  3
   2030   2031   2043   2045     1  0.0000000  0.6508444  3
   2030   2034   2046   2047     1  0.0000000  0.6508444  3
   2030   2034   2046   2048     1  0.0000000  0.6508444  3
   2030   2037   2040   2041     1  0.0000000  0.6508444  3
   2030   2037   2040   2042     1  0.0000000  0.6508444  3
   2031   2030   2034   2035     1  0.0000000  1.2552000  3
   2031   2030   2034   2036     1  0.0000000  1.2552000  3
   2031   2030   2037   2038     1  0.0000000  1.2552000  3
   2031   2030   2037   2039     1  0.0000000  1.2552000  3
   2031   2043   2055   2056     1  0.0000000  0.6508444  3
   2031   2043   2055   2057     1  0.0000000  0.6508444  3
   2032   2031   2030   2034     1  0.0000000  1.2552000  3
   2032   2031   2030   2037     1  0.0000000  1.2552000  3
   2032   2031   2043   2055     1  0.0000000  0.6508444  3
   2032   2031   2043   2044     1  0.0000000  0.6508444  3
   2032   2031   2043   2045     1  0.0000000  0.6508444  3
   2033   2031   2030   2034     1  0.0000000  1.2552000  3
   2033   2031   2030   2037     1  0.0000000  1.2552000  3
   2033   2031   2043   2055     1  0.0000000  0.6508444  3
   2033   2031   2043   2044     1  0.0000000  0.6508444  3
   2033   2031   2043   2045     1  0.0000000  0.6508444  3
   2034   2030   2037   2038     1  0.0000000  1.2552000  3
   2034   2030   2037   2039     1  0.0000000  1.2552000  3
   2034   2046   2052   2053     1  0.0000000  0.6508444  3
   2034   2046   2052   2054     1  0.0000000  0.6508444  3
   2035   2034   2030   2037     1  0.0000000  1.2552000  3
   2035   2034   2046   2052     1  0.0000000  0.6508444  3
   2035   2034   2046   2047     1  0.0000000  0.6508444  3
   2035   2034   2046   2048     1  0.0000000  0.6508444  3
   2036   2034   2030   2037     1  0.0000000  1.2552000  3
   2036   2034   2046   2052     1  0.0000000  0.6508444  3
   2036   2034   2046   2047     1  0.0000000  0.6508444  3
   2036   2034   2046   2048     1  0.0000000  0.6508444  3
   2037   2040   2049   2050     1  0.0000000  0.6508444  3
   2037   2040   2049   2051     1  0.0000000  0.6508444  3
   2038   2037   2040   2049     1  0.0000000  0.6508444  3
   2038   2037   2040   2041     1  0.0000000  0.6508444  3
   2038   2037   2040   2042     1  0.0000000  0.6508444  3
   2039   2037   2040   2049     1  0.0000000  0.6508444  3
   2039   2037   2040   2041     1  0.0000000  0.6508444  3
   2039   2037   2040   2042     1  0.0000000  0.6508444  3
   2041   2040   2049   2058     1  0.0000000  1.0460000  1
   2041   2040   2049   2058     1  0.0000000  0.0000000  3
   2041   2040   2049   2050     1  0.0000000  0.6508444  3
   2041   2040   2049   2051     1  0.0000000  0.6508444  3
   2042   2040   2049   2058     1  0.0000000  1.0460000  1
   2042   2040   2049   2058     1  0.0000000  0.0000000  3
   2042   2040   2049   2050     1  0.0000000  0.6508444  3
   2042   2040   2049   2051     1  0.0000000  0.6508444  3
   2044   2043   2055   4211     1  0.0000000  1.0460000  1
   2044   2043   2055   4211     1  0.0000000  0.0000000  3
   2044   2043   2055   2056     1  0.0000000  0.6508444  3
   2044   2043   2055   2057     1  0.0000000  0.6508444  3
   2045   2043   2055   4211     1  0.0000000  1.0460000  1
   2045   2043   2055   4211     1  0.0000000  0.0000000  3
   2045   2043   2055   2056     1  0.0000000  0.6508444  3
   2045   2043   2055   2057     1  0.0000000  0.6508444  3
   2047   2046   2052   4180     1  0.0000000  1.0460000  1
   2047   2046   2052   4180     1  0.0000000  0.0000000  3
   2047   2046   2052   2053     1  0.0000000  0.6508444  3
   2047   2046   2052   2054     1  0.0000000  0.6508444  3
   2048   2046   2052   4180     1  0.0000000  1.0460000  1
   2048   2046   2052   4180     1  0.0000000  0.0000000  3
   2048   2046   2052   2053     1  0.0000000  0.6508444  3
   2048   2046   2052   2054     1  0.0000000  0.6508444  3
   2052   4180   4150   4151     1  0.0000000  1.6038667  3
   2052   4180   4150   4152     1  0.0000000  1.6038667  3
   2053   2052   4180   4150     1  0.0000000  1.6038667  3
   2054   2052   4180   4150     1  0.0000000  1.6038667  3
   2055   4211   4181   4182     1  0.0000000  1.6038667  3
   2055   4211   4181   4183     1  0.0000000  1.6038667  3
   2056   2055   4211   4181     1  0.0000000  1.6038667  3
   2057   2055   4211   4181     1  0.0000000  1.6038667  3
   2059   2060   2072   2073     1  0.0000000  0.6508444  3
   2059   2060   2072   2074     1  0.0000000  0.6508444  3
   2059   2063   2075   2076     1  0.0000000  0.6508444  3
   2059   2063   2075   2077     1  0.0000000  0.6508444  3
   2059   2066   2069   2070     1  0.0000000  0.6508444  3
   2059   2066   2069   2071     1  0.0000000  0.6508444  3
   2060   2059   2063   2064     1  0.0000000  1.2552000  3
   2060   2059   2063   2065     1  0.0000000  1.2552000  3
   2060   2059   2066   2067     1  0.0000000  1.2552000  3
   2060   2059   2066   2068     1  0.0000000  1.2552000  3
   2060   2072   2084   2085     1  0.0000000  0.6508444  3
   2060   2072   2084   2086     1  0.0000000  0.6508444  3
   2061   2060   2059   2063     1  0.0000000  1.2552000  3
   2061   2060   2059   2066     1  0.0000000  1.2552000  3
   2061   2060   2072   2084     1  0.0000000  0.6508444  3
   2061   2060   2072   2073     1  0.0000000  0.6508444  3
   2061   2060   2072   2074     1  0.0000000  0.6508444  3
   2062   2060   2059   2063     1  0.0000000  1.2552000  3
   2062   2060   2059   2066     1  0.0000000  1.2552000  3
   2062   2060   2072   2084     1  0.0000000  0.6508444  3
   2062   2060   2072   2073     1  0.0000000  0.6508444  3
   2062   2060   2072   2074     1  0.0000000  0.6508444  3
   2063   2059   2066   2067     1  0.0000000  1.2552000  3
   2063   2059   2066   2068     1  0.0000000  1.2552000  3
   2063   2075   2081   2082     1  0.0000000  0.6508444  3
   2063   2075   2081   2083     1  0.0000000  0.6508444  3
   2064   2063   2059   2066     1  0.0000000  1.2552000  3
   2064   2063   2075   2081     1  0.0000000  0.6508444  3
   2064   2063   2075   2076     1  0.0000000  0.6508444  3
   2064   2063   2075   2077     1  0.0000000  0.6508444  3
   2065   2063   2059   2066     1  0.0000000  1.2552000  3
   2065   2063   2075   2081     1  0.0000000  0.6508444  3
   2065   2063   2075   2076     1  0.0000000  0.6508444  3
   2065   2063   2075   2077     1  0.0000000  0.6508444  3
   2066   2069   2078   2079     1  0.0000000  0.6508444  3
   2066   2069   2078   2080     1  0.0000000  0.6508444  3
   2067   2066   2069   2078     1  0.0000000  0.6508444  3
   2067   2066   2069   2070     1  0.0000000  0.6508444  3
   2067   2066   2069   2071     1  0.0000000  0.6508444  3
   2068   2066   2069   2078     1  0.0000000  0.6508444  3
   2068   2066   2069   2070     1  0.0000000  0.6508444  3
   2068   2066   2069   2071     1  0.0000000  0.6508444  3
   2070   2069   2078   2087     1  0.0000000  1.0460000  1
   2070   2069   2078   2087     1  0.0000000  0.0000000  3
   2070   2069   2078   2079     1  0.0000000  0.6508444  3
   2070   2069   2078   2080     1  0.0000000  0.6508444  3
   2071   2069   2078   2087     1  0.0000000  1.0460000  1
   2071   2069   2078   2087     1  0.0000000  0.0000000  3
   2071   2069   2078   2079     1  0.0000000  0.6508444  3
   2071   2069   2078   2080     1  0.0000000  0.6508444  3
   2073   2072   2084   4273     1  0.0000000  1.0460000  1
   2073   2072   2084   4273     1  0.0000000  0.0000000  3
   2073   2072   2084   2085     1  0.0000000  0.6508444  3
   2073   2072   2084   2086     1  0.0000000  0.6508444  3
   2074   2072   2084   4273     1  0.0000000  1.0460000  1
   2074   2072   2084   4273     1  0.0000000  0.0000000  3
   2074   2072   2084   2085     1  0.0000000  0.6508444  3
   2074   2072   2084   2086     1  0.0000000  0.6508444  3
   2076   2075   2081   4242     1  0.0000000  1.0460000  1
   2076   2075   2081   4242     1  0.0000000  0.0000000  3
   2076   2075   2081   2082     1  0.0000000  0.6508444  3
   2076   2075   2081   2083     1  0.0000000  0.6508444  3
   2077   2075   2081   4242     1  0.0000000  1.0460000  1
   2077   2075   2081   4242     1  0.0000000  0.0000000  3
   2077   2075   2081   2082     1  0.0000000  0.6508444  3
   2077   2075   2081   2083     1  0.0000000  0.6508444  3
   2081   4242   4212   4213     1  0.0000000  1.6038667  3
   2081   4242   4212   4214     1  0.0000000  1.6038667  3
   2082   2081   4242   4212     1  0.0000000  1.6038667  3
   2083   2081   4242   4212     1  0.0000000  1.6038667  3
   2084   4273   4243   4244     1  0.0000000  1.6038667  3
   2084   4273   4243   4245     1  0.0000000  1.6038667  3
   2085   2084   4273   4243     1  0.0000000  1.6038667  3
   2086   2084   4273   4243     1  0.0000000  1.6038667  3
   2088   2089   2101   2102     1  0.0000000  0.6508444  3
   2088   2089   2101   2103     1  0.0000000  0.6508444  3
   2088   2092   2104   2105     1  0.0000000  0.6508444  3
   2088   2092   2104   2106     1  0.0000000  0.6508444  3
   2088   2095   2098   2099     1  0.0000000  0.6508444  3
   2088   2095   2098   2100     1  0.0000000  0.6508444  3
   2089   2088   2092   2093     1  0.0000000  1.2552000  3
   2089   2088   2092   2094     1  0.0000000  1.2552000  3
   2089   2088   2095   2096     1  0.0000000  1.2552000  3
   2089   2088   2095   2097     1  0.0000000  1.2552000  3
   2089   2101   2113   2114     1  0.0000000  0.6508444  3
   2089   2101   2113   2115     1  0.0000000  0.6508444  3
   2090   2089   2088   2092     1  0.0000000  1.2552000  3
   2090   2089   2088   2095     1  0.0000000  1.2552000  3
   2090   2089   2101   2113     1  0.0000000  0.6508444  3
   2090   2089   2101   2102     1  0.0000000  0.6508444  3
   2090   2089   2101   2103     1  0.0000000  0.6508444  3
   2091   2089   2088   2092     1  0.0000000  1.2552000  3
   2091   2089   2088   2095     1  0.0000000  1.2552000  3
   2091   2089   2101   2113     1  0.0000000  0.6508444  3
   2091   2089   2101   2102     1  0.0000000  0.6508444  3
   2091   2089   2101   2103     1  0.0000000  0.6508444  3
   2092   2088   2095   2096     1  0.0000000  1.2552000  3
   2092   2088   2095   2097     1  0.0000000  1.2552000  3
   2092   2104   2110   2111     1  0.0000000  0.6508444  3
   2092   2104   2110   2112     1  0.0000000  0.6508444  3
   2093   2092   2088   2095     1  0.0000000  1.2552000  3
   2093   2092   2104   2110     1  0.0000000  0.6508444  3
   2093   2092   2104   2105     1  0.0000000  0.6508444  3
   2093   2092   2104   2106     1  0.0000000  0.6508444  3
   2094   2092   2088   2095     1  0.0000000  1.2552000  3
   2094   2092   2104   2110     1  0.0000000  0.6508444  3
   2094   2092   2104   2105     1  0.0000000  0.6508444  3
   2094   2092   2104   2106     1  0.0000000  0.6508444  3
   2095   2098   2107   2108     1  0.0000000  0.6508444  3
   2095   2098   2107   2109     1  0.0000000  0.6508444  3
   2096   2095   2098   2107     1  0.0000000  0.6508444  3
   2096   2095   2098   2099     1  0.0000000  0.6508444  3
   2096   2095   2098   2100     1  0.0000000  0.6508444  3
   2097   2095   2098   2107     1  0.0000000  0.6508444  3
   2097   2095   2098   2099     1  0.0000000  0.6508444  3
   2097   2095   2098   2100     1  0.0000000  0.6508444  3
   2099   2098   2107   2116     1  0.0000000  1.0460000  1
   2099   2098   2107   2116     1  0.0000000  0.0000000  3
   2099   2098   2107   2108     1  0.0000000  0.6508444  3
   2099   2098   2107   2109     1  0.0000000  0.6508444  3
   2100   2098   2107   2116     1  0.0000000  1.0460000  1
   2100   2098   2107   2116     1  0.0000000  0.0000000  3
   2100   2098   2107   2108     1  0.0000000  0.6508444  3
   2100   2098   2107   2109     1  0.0000000  0.6508444  3
   2102   2101   2113   4335     1  0.0000000  1.0460000  1
   2102   2101   2113   4335     1  0.0000000  0.0000000  3
   2102   2101   2113   2114     1  0.0000000  0.6508444  3
   2102   2101   2113   2115     1  0.0000000  0.6508444  3
   2103   2101   2113   4335     1  0.0000000  1.0460000  1
   2103   2101   2113   4335     1  0.0000000  0.0000000  3
   2103   2101   2113   2114     1  0.0000000  0.6508444  3
   2103   2101   2113   2115     1  0.0000000  0.6508444  3
   2105   2104   2110   4304     1  0.0000000  1.0460000  1
   2105   2104   2110   4304     1  0.0000000  0.0000000  3
   2105   2104   2110   2111     1  0.0000000  0.6508444  3
   2105   2104   2110   2112     1  0.0000000  0.6508444  3
   2106   2104   2110   4304     1  0.0000000  1.0460000  1
   2106   2104   2110   4304     1  0.0000000  0.0000000  3
   2106   2104   2110   2111     1  0.0000000  0.6508444  3
   2106   2104   2110   2112     1  0.0000000  0.6508444  3
   2110   4304   4274   4275     1  0.0000000  1.6038667  3
   2110   4304   4274   4276     1  0.0000000  1.6038667  3
   2111   2110   4304   4274     1  0.0000000  1.6038667  3
   2112   2110   4304   4274     1  0.0000000  1.6038667  3
   2113   4335   4305   4306     1  0.0000000  1.6038667  3
   2113   4335   4305   4307     1  0.0000000  1.6038667  3
   2114   2113   4335   4305     1  0.0000000  1.6038667  3
   2115   2113   4335   4305     1  0.0000000  1.6038667  3
   2117   2118   2130   2131     1  0.0000000  0.6508444  3
   2117   2118   2130   2132     1  0.0000000  0.6508444  3
   2117   2121   2133   2134     1  0.0000000  0.6508444  3
   2117   2121   2133   2135     1  0.0000000  0.6508444  3
   2117   2124   2127   2128     1  0.0000000  0.6508444  3
   2117   2124   2127   2129     1  0.0000000  0.6508444  3
   2118   2117   2121   2122     1  0.0000000  1.2552000  3
   2118   2117   2121   2123     1  0.0000000  1.2552000  3
   2118   2117   2124   2125     1  0.0000000  1.2552000  3
   2118   2117   2124   2126     1  0.0000000  1.2552000  3
   2118   2130   2142   2143     1  0.0000000  0.6508444  3
   2118   2130   2142   2144     1  0.0000000  0.6508444  3
   2119   2118   2117   2121     1  0.0000000  1.2552000  3
   2119   2118   2117   2124     1  0.0000000  1.2552000  3
   2119   2118   2130   2142     1  0.0000000  0.6508444  3
   2119   2118   2130   2131     1  0.0000000  0.6508444  3
   2119   2118   2130   2132     1  0.0000000  0.6508444  3
   2120   2118   2117   2121     1  0.0000000  1.2552000  3
   2120   2118   2117   2124     1  0.0000000  1.2552000  3
   2120   2118   2130   2142     1  0.0000000  0.6508444  3
   2120   2118   2130   2131     1  0.0000000  0.6508444  3
   2120   2118   2130   2132     1  0.0000000  0.6508444  3
   2121   2117   2124   2125     1  0.0000000  1.2552000  3
   2121   2117   2124   2126     1  0.0000000  1.2552000  3
   2121   2133   2139   2140     1  0.0000000  0.6508444  3
   2121   2133   2139   2141     1  0.0000000  0.6508444  3
   2122   2121   2117   2124     1  0.0000000  1.2552000  3
   2122   2121   2133   2139     1  0.0000000  0.6508444  3
   2122   2121   2133   2134     1  0.0000000  0.6508444  3
   2122   2121   2133   2135     1  0.0000000  0.6508444  3
   2123   2121   2117   2124     1  0.0000000  1.2552000  3
   2123   2121   2133   2139     1  0.0000000  0.6508444  3
   2123   2121   2133   2134     1  0.0000000  0.6508444  3
   2123   2121   2133   2135     1  0.0000000  0.6508444  3
   2124   2127   2136   2137     1  0.0000000  0.6508444  3
   2124   2127   2136   2138     1  0.0000000  0.6508444  3
   2125   2124   2127   2136     1  0.0000000  0.6508444  3
   2125   2124   2127   2128     1  0.0000000  0.6508444  3
   2125   2124   2127   2129     1  0.0000000  0.6508444  3
   2126   2124   2127   2136     1  0.0000000  0.6508444  3
   2126   2124   2127   2128     1  0.0000000  0.6508444  3
   2126   2124   2127   2129     1  0.0000000  0.6508444  3
   2128   2127   2136   2145     1  0.0000000  1.0460000  1
   2128   2127   2136   2145     1  0.0000000  0.0000000  3
   2128   2127   2136   2137     1  0.0000000  0.6508444  3
   2128   2127   2136   2138     1  0.0000000  0.6508444  3
   2129   2127   2136   2145     1  0.0000000  1.0460000  1
   2129   2127   2136   2145     1  0.0000000  0.0000000  3
   2129   2127   2136   2137     1  0.0000000  0.6508444  3
   2129   2127   2136   2138     1  0.0000000  0.6508444  3
   2131   2130   2142   4397     1  0.0000000  1.0460000  1
   2131   2130   2142   4397     1  0.0000000  0.0000000  3
   2131   2130   2142   2143     1  0.0000000  0.6508444  3
   2131   2130   2142   2144     1  0.0000000  0.6508444  3
   2132   2130   2142   4397     1  0.0000000  1.0460000  1
   2132   2130   2142   4397     1  0.0000000  0.0000000  3
   2132   2130   2142   2143     1  0.0000000  0.6508444  3
   2132   2130   2142   2144     1  0.0000000  0.6508444  3
   2134   2133   2139   4366     1  0.0000000  1.0460000  1
   2134   2133   2139   4366     1  0.0000000  0.0000000  3
   2134   2133   2139   2140     1  0.0000000  0.6508444  3
   2134   2133   2139   2141     1  0.0000000  0.6508444  3
   2135   2133   2139   4366     1  0.0000000  1.0460000  1
   2135   2133   2139   4366     1  0.0000000  0.0000000  3
   2135   2133   2139   2140     1  0.0000000  0.6508444  3
   2135   2133   2139   2141     1  0.0000000  0.6508444  3
   2139   4366   4336   4337     1  0.0000000  1.6038667  3
   2139   4366   4336   4338     1  0.0000000  1.6038667  3
   2140   2139   4366   4336     1  0.0000000  1.6038667  3
   2141   2139   4366   4336     1  0.0000000  1.6038667  3
   2142   4397   4367   4368     1  0.0000000  1.6038667  3
   2142   4397   4367   4369     1  0.0000000  1.6038667  3
   2143   2142   4397   4367     1  0.0000000  1.6038667  3
   2144   2142   4397   4367     1  0.0000000  1.6038667  3
   2146   2147   2159   2160     1  0.0000000  0.6508444  3
   2146   2147   2159   2161     1  0.0000000  0.6508444  3
   2146   2150   2162   2163     1  0.0000000  0.6508444  3
   2146   2150   2162   2164     1  0.0000000  0.6508444  3
   2146   2153   2156   2157     1  0.0000000  0.6508444  3
   2146   2153   2156   2158     1  0.0000000  0.6508444  3
   2147   2146   2150   2151     1  0.0000000  1.2552000  3
   2147   2146   2150   2152     1  0.0000000  1.2552000  3
   2147   2146   2153   2154     1  0.0000000  1.2552000  3
   2147   2146   2153   2155     1  0.0000000  1.2552000  3
   2147   2159   2171   2172     1  0.0000000  0.6508444  3
   2147   2159   2171   2173     1  0.0000000  0.6508444  3
   2148   2147   2146   2150     1  0.0000000  1.2552000  3
   2148   2147   2146   2153     1  0.0000000  1.2552000  3
   2148   2147   2159   2171     1  0.0000000  0.6508444  3
   2148   2147   2159   2160     1  0.0000000  0.6508444  3
   2148   2147   2159   2161     1  0.0000000  0.6508444  3
   2149   2147   2146   2150     1  0.0000000  1.2552000  3
   2149   2147   2146   2153     1  0.0000000  1.2552000  3
   2149   2147   2159   2171     1  0.0000000  0.6508444  3
   2149   2147   2159   2160     1  0.0000000  0.6508444  3
   2149   2147   2159   2161     1  0.0000000  0.6508444  3
   2150   2146   2153   2154     1  0.0000000  1.2552000  3
   2150   2146   2153   2155     1  0.0000000  1.2552000  3
   2150   2162   2168   2169     1  0.0000000  0.6508444  3
   2150   2162   2168   2170     1  0.0000000  0.6508444  3
   2151   2150   2146   2153     1  0.0000000  1.2552000  3
   2151   2150   2162   2168     1  0.0000000  0.6508444  3
   2151   2150   2162   2163     1  0.0000000  0.6508444  3
   2151   2150   2162   2164     1  0.0000000  0.6508444  3
   2152   2150   2146   2153     1  0.0000000  1.2552000  3
   2152   2150   2162   2168     1  0.0000000  0.6508444  3
   2152   2150   2162   2163     1  0.0000000  0.6508444  3
   2152   2150   2162   2164     1  0.0000000  0.6508444  3
   2153   2156   2165   2166     1  0.0000000  0.6508444  3
   2153   2156   2165   2167     1  0.0000000  0.6508444  3
   2154   2153   2156   2165     1  0.0000000  0.6508444  3
   2154   2153   2156   2157     1  0.0000000  0.6508444  3
   2154   2153   2156   2158     1  0.0000000  0.6508444  3
   2155   2153   2156   2165     1  0.0000000  0.6508444  3
   2155   2153   2156   2157     1  0.0000000  0.6508444  3
   2155   2153   2156   2158     1  0.0000000  0.6508444  3
   2157   2156   2165   2174     1  0.0000000  1.0460000  1
   2157   2156   2165   2174     1  0.0000000  0.0000000  3
   2157   2156   2165   2166     1  0.0000000  0.6508444  3
   2157   2156   2165   2167     1  0.0000000  0.6508444  3
   2158   2156   2165   2174     1  0.0000000  1.0460000  1
   2158   2156   2165   2174     1  0.0000000  0.0000000  3
   2158   2156   2165   2166     1  0.0000000  0.6508444  3
   2158   2156   2165   2167     1  0.0000000  0.6508444  3
   2160   2159   2171   4459     1  0.0000000  1.0460000  1
   2160   2159   2171   4459     1  0.0000000  0.0000000  3
   2160   2159   2171   2172     1  0.0000000  0.6508444  3
   2160   2159   2171   2173     1  0.0000000  0.6508444  3
   2161   2159   2171   4459     1  0.0000000  1.0460000  1
   2161   2159   2171   4459     1  0.0000000  0.0000000  3
   2161   2159   2171   2172     1  0.0000000  0.6508444  3
   2161   2159   2171   2173     1  0.0000000  0.6508444  3
   2163   2162   2168   4428     1  0.0000000  1.0460000  1
   2163   2162   2168   4428     1  0.0000000  0.0000000  3
   2163   2162   2168   2169     1  0.0000000  0.6508444  3
   2163   2162   2168   2170     1  0.0000000  0.6508444  3
   2164   2162   2168   4428     1  0.0000000  1.0460000  1
   2164   2162   2168   4428     1  0.0000000  0.0000000  3
   2164   2162   2168   2169     1  0.0000000  0.6508444  3
   2164   2162   2168   2170     1  0.0000000  0.6508444  3
   2168   4428   4398   4399     1  0.0000000  1.6038667  3
   2168   4428   4398   4400     1  0.0000000  1.6038667  3
   2169   2168   4428   4398     1  0.0000000  1.6038667  3
   2170   2168   4428   4398     1  0.0000000  1.6038667  3
   2171   4459   4429   4430     1  0.0000000  1.6038667  3
   2171   4459   4429   4431     1  0.0000000  1.6038667  3
   2172   2171   4459   4429     1  0.0000000  1.6038667  3
   2173   2171   4459   4429     1  0.0000000  1.6038667  3
   2175   2176   2188   2189     1  0.0000000  0.6508444  3
   2175   2176   2188   2190     1  0.0000000  0.6508444  3
   2175   2179   2191   2192     1  0.0000000  0.6508444  3
   2175   2179   2191   2193     1  0.0000000  0.6508444  3
   2175   2182   2185   2186     1  0.0000000  0.6508444  3
   2175   2182   2185   2187     1  0.0000000  0.6508444  3
   2176   2175   2179   2180     1  0.0000000  1.2552000  3
   2176   2175   2179   2181     1  0.0000000  1.2552000  3
   2176   2175   2182   2183     1  0.0000000  1.2552000  3
   2176   2175   2182   2184     1  0.0000000  1.2552000  3
   2176   2188   2200   2201     1  0.0000000  0.6508444  3
   2176   2188   2200   2202     1  0.0000000  0.6508444  3
   2177   2176   2175   2179     1  0.0000000  1.2552000  3
   2177   2176   2175   2182     1  0.0000000  1.2552000  3
   2177   2176   2188   2200     1  0.0000000  0.6508444  3
   2177   2176   2188   2189     1  0.0000000  0.6508444  3
   2177   2176   2188   2190     1  0.0000000  0.6508444  3
   2178   2176   2175   2179     1  0.0000000  1.2552000  3
   2178   2176   2175   2182     1  0.0000000  1.2552000  3
   2178   2176   2188   2200     1  0.0000000  0.6508444  3
   2178   2176   2188   2189     1  0.0000000  0.6508444  3
   2178   2176   2188   2190     1  0.0000000  0.6508444  3
   2179   2175   2182   2183     1  0.0000000  1.2552000  3
   2179   2175   2182   2184     1  0.0000000  1.2552000  3
   2179   2191   2197   2198     1  0.0000000  0.6508444  3
   2179   2191   2197   2199     1  0.0000000  0.6508444  3
   2180   2179   2175   2182     1  0.0000000  1.2552000  3
   2180   2179   2191   2197     1  0.0000000  0.6508444  3
   2180   2179   2191   2192     1  0.0000000  0.6508444  3
   2180   2179   2191   2193     1  0.0000000  0.6508444  3
   2181   2179   2175   2182     1  0.0000000  1.2552000  3
   2181   2179   2191   2197     1  0.0000000  0.6508444  3
   2181   2179   2191   2192     1  0.0000000  0.6508444  3
   2181   2179   2191   2193     1  0.0000000  0.6508444  3
   2182   2185   2194   2195     1  0.0000000  0.6508444  3
   2182   2185   2194   2196     1  0.0000000  0.6508444  3
   2183   2182   2185   2194     1  0.0000000  0.6508444  3
   2183   2182   2185   2186     1  0.0000000  0.6508444  3
   2183   2182   2185   2187     1  0.0000000  0.6508444  3
   2184   2182   2185   2194     1  0.0000000  0.6508444  3
   2184   2182   2185   2186     1  0.0000000  0.6508444  3
   2184   2182   2185   2187     1  0.0000000  0.6508444  3
   2186   2185   2194   2203     1  0.0000000  1.0460000  1
   2186   2185   2194   2203     1  0.0000000  0.0000000  3
   2186   2185   2194   2195     1  0.0000000  0.6508444  3
   2186   2185   2194   2196     1  0.0000000  0.6508444  3
   2187   2185   2194   2203     1  0.0000000  1.0460000  1
   2187   2185   2194   2203     1  0.0000000  0.0000000  3
   2187   2185   2194   2195     1  0.0000000  0.6508444  3
   2187   2185   2194   2196     1  0.0000000  0.6508444  3
   2189   2188   2200   4521     1  0.0000000  1.0460000  1
   2189   2188   2200   4521     1  0.0000000  0.0000000  3
   2189   2188   2200   2201     1  0.0000000  0.6508444  3
   2189   2188   2200   2202     1  0.0000000  0.6508444  3
   2190   2188   2200   4521     1  0.0000000  1.0460000  1
   2190   2188   2200   4521     1  0.0000000  0.0000000  3
   2190   2188   2200   2201     1  0.0000000  0.6508444  3
   2190   2188   2200   2202     1  0.0000000  0.6508444  3
   2192   2191   2197   4490     1  0.0000000  1.0460000  1
   2192   2191   2197   4490     1  0.0000000  0.0000000  3
   2192   2191   2197   2198     1  0.0000000  0.6508444  3
   2192   2191   2197   2199     1  0.0000000  0.6508444  3
   2193   2191   2197   4490     1  0.0000000  1.0460000  1
   2193   2191   2197   4490     1  0.0000000  0.0000000  3
   2193   2191   2197   2198     1  0.0000000  0.6508444  3
   2193   2191   2197   2199     1  0.0000000  0.6508444  3
   2197   4490   4460   4461     1  0.0000000  1.6038667  3
   2197   4490   4460   4462     1  0.0000000  1.6038667  3
   2198   2197   4490   4460     1  0.0000000  1.6038667  3
   2199   2197   4490   4460     1  0.0000000  1.6038667  3
   2200   4521   4491   4492     1  0.0000000  1.6038667  3
   2200   4521   4491   4493     1  0.0000000  1.6038667  3
   2201   2200   4521   4491     1  0.0000000  1.6038667  3
   2202   2200   4521   4491     1  0.0000000  1.6038667  3
   2204   2205   2217   2218     1  0.0000000  0.6508444  3
   2204   2205   2217   2219     1  0.0000000  0.6508444  3
   2204   2208   2220   2221     1  0.0000000  0.6508444  3
   2204   2208   2220   2222     1  0.0000000  0.6508444  3
   2204   2211   2214   2215     1  0.0000000  0.6508444  3
   2204   2211   2214   2216     1  0.0000000  0.6508444  3
   2205   2204   2208   2209     1  0.0000000  1.2552000  3
   2205   2204   2208   2210     1  0.0000000  1.2552000  3
   2205   2204   2211   2212     1  0.0000000  1.2552000  3
   2205   2204   2211   2213     1  0.0000000  1.2552000  3
   2205   2217   2229   2230     1  0.0000000  0.6508444  3
   2205   2217   2229   2231     1  0.0000000  0.6508444  3
   2206   2205   2204   2208     1  0.0000000  1.2552000  3
   2206   2205   2204   2211     1  0.0000000  1.2552000  3
   2206   2205   2217   2229     1  0.0000000  0.6508444  3
   2206   2205   2217   2218     1  0.0000000  0.6508444  3
   2206   2205   2217   2219     1  0.0000000  0.6508444  3
   2207   2205   2204   2208     1  0.0000000  1.2552000  3
   2207   2205   2204   2211     1  0.0000000  1.2552000  3
   2207   2205   2217   2229     1  0.0000000  0.6508444  3
   2207   2205   2217   2218     1  0.0000000  0.6508444  3
   2207   2205   2217   2219     1  0.0000000  0.6508444  3
   2208   2204   2211   2212     1  0.0000000  1.2552000  3
   2208   2204   2211   2213     1  0.0000000  1.2552000  3
   2208   2220   2226   2227     1  0.0000000  0.6508444  3
   2208   2220   2226   2228     1  0.0000000  0.6508444  3
   2209   2208   2204   2211     1  0.0000000  1.2552000  3
   2209   2208   2220   2226     1  0.0000000  0.6508444  3
   2209   2208   2220   2221     1  0.0000000  0.6508444  3
   2209   2208   2220   2222     1  0.0000000  0.6508444  3
   2210   2208   2204   2211     1  0.0000000  1.2552000  3
   2210   2208   2220   2226     1  0.0000000  0.6508444  3
   2210   2208   2220   2221     1  0.0000000  0.6508444  3
   2210   2208   2220   2222     1  0.0000000  0.6508444  3
   2211   2214   2223   2224     1  0.0000000  0.6508444  3
   2211   2214   2223   2225     1  0.0000000  0.6508444  3
   2212   2211   2214   2223     1  0.0000000  0.6508444  3
   2212   2211   2214   2215     1  0.0000000  0.6508444  3
   2212   2211   2214   2216     1  0.0000000  0.6508444  3
   2213   2211   2214   2223     1  0.0000000  0.6508444  3
   2213   2211   2214   2215     1  0.0000000  0.6508444  3
   2213   2211   2214   2216     1  0.0000000  0.6508444  3
   2215   2214   2223   2232     1  0.0000000  1.0460000  1
   2215   2214   2223   2232     1  0.0000000  0.0000000  3
   2215   2214   2223   2224     1  0.0000000  0.6508444  3
   2215   2214   2223   2225     1  0.0000000  0.6508444  3
   2216   2214   2223   2232     1  0.0000000  1.0460000  1
   2216   2214   2223   2232     1  0.0000000  0.0000000  3
   2216   2214   2223   2224     1  0.0000000  0.6508444  3
   2216   2214   2223   2225     1  0.0000000  0.6508444  3
   2218   2217   2229   4583     1  0.0000000  1.0460000  1
   2218   2217   2229   4583     1  0.0000000  0.0000000  3
   2218   2217   2229   2230     1  0.0000000  0.6508444  3
   2218   2217   2229   2231     1  0.0000000  0.6508444  3
   2219   2217   2229   4583     1  0.0000000  1.0460000  1
   2219   2217   2229   4583     1  0.0000000  0.0000000  3
   2219   2217   2229   2230     1  0.0000000  0.6508444  3
   2219   2217   2229   2231     1  0.0000000  0.6508444  3
   2221   2220   2226   4552     1  0.0000000  1.0460000  1
   2221   2220   2226   4552     1  0.0000000  0.0000000  3
   2221   2220   2226   2227     1  0.0000000  0.6508444  3
   2221   2220   2226   2228     1  0.0000000  0.6508444  3
   2222   2220   2226   4552     1  0.0000000  1.0460000  1
   2222   2220   2226   4552     1  0.0000000  0.0000000  3
   2222   2220   2226   2227     1  0.0000000  0.6508444  3
   2222   2220   2226   2228     1  0.0000000  0.6508444  3
   2226   4552   4522   4523     1  0.0000000  1.6038667  3
   2226   4552   4522   4524     1  0.0000000  1.6038667  3
   2227   2226   4552   4522     1  0.0000000  1.6038667  3
   2228   2226   4552   4522     1  0.0000000  1.6038667  3
   2229   4583   4553   4554     1  0.0000000  1.6038667  3
   2229   4583   4553   4555     1  0.0000000  1.6038667  3
   2230   2229   4583   4553     1  0.0000000  1.6038667  3
   2231   2229   4583   4553     1  0.0000000  1.6038667  3
   2233   2234   2246   2247     1  0.0000000  0.6508444  3
   2233   2234   2246   2248     1  0.0000000  0.6508444  3
   2233   2237   2249   2250     1  0.0000000  0.6508444  3
   2233   2237   2249   2251     1  0.0000000  0.6508444  3
   2233   2240   2243   2244     1  0.0000000  0.6508444  3
   2233   2240   2243   2245     1  0.0000000  0.6508444  3
   2234   2233   2237   2238     1  0.0000000  1.2552000  3
   2234   2233   2237   2239     1  0.0000000  1.2552000  3
   2234   2233   2240   2241     1  0.0000000  1.2552000  3
   2234   2233   2240   2242     1  0.0000000  1.2552000  3
   2234   2246   2258   2259     1  0.0000000  0.6508444  3
   2234   2246   2258   2260     1  0.0000000  0.6508444  3
   2235   2234   2233   2237     1  0.0000000  1.2552000  3
   2235   2234   2233   2240     1  0.0000000  1.2552000  3
   2235   2234   2246   2258     1  0.0000000  0.6508444  3
   2235   2234   2246   2247     1  0.0000000  0.6508444  3
   2235   2234   2246   2248     1  0.0000000  0.6508444  3
   2236   2234   2233   2237     1  0.0000000  1.2552000  3
   2236   2234   2233   2240     1  0.0000000  1.2552000  3
   2236   2234   2246   2258     1  0.0000000  0.6508444  3
   2236   2234   2246   2247     1  0.0000000  0.6508444  3
   2236   2234   2246   2248     1  0.0000000  0.6508444  3
   2237   2233   2240   2241     1  0.0000000  1.2552000  3
   2237   2233   2240   2242     1  0.0000000  1.2552000  3
   2237   2249   2255   2256     1  0.0000000  0.6508444  3
   2237   2249   2255   2257     1  0.0000000  0.6508444  3
   2238   2237   2233   2240     1  0.0000000  1.2552000  3
   2238   2237   2249   2255     1  0.0000000  0.6508444  3
   2238   2237   2249   2250     1  0.0000000  0.6508444  3
   2238   2237   2249   2251     1  0.0000000  0.6508444  3
   2239   2237   2233   2240     1  0.0000000  1.2552000  3
   2239   2237   2249   2255     1  0.0000000  0.6508444  3
   2239   2237   2249   2250     1  0.0000000  0.6508444  3
   2239   2237   2249   2251     1  0.0000000  0.6508444  3
   2240   2243   2252   2253     1  0.0000000  0.6508444  3
   2240   2243   2252   2254     1  0.0000000  0.6508444  3
   2241   2240   2243   2252     1  0.0000000  0.6508444  3
   2241   2240   2243   2244     1  0.0000000  0.6508444  3
   2241   2240   2243   2245     1  0.0000000  0.6508444  3
   2242   2240   2243   2252     1  0.0000000  0.6508444  3
   2242   2240   2243   2244     1  0.0000000  0.6508444  3
   2242   2240   2243   2245     1  0.0000000  0.6508444  3
   2244   2243   2252   2261     1  0.0000000  1.0460000  1
   2244   2243   2252   2261     1  0.0000000  0.0000000  3
   2244   2243   2252   2253     1  0.0000000  0.6508444  3
   2244   2243   2252   2254     1  0.0000000  0.6508444  3
   2245   2243   2252   2261     1  0.0000000  1.0460000  1
   2245   2243   2252   2261     1  0.0000000  0.0000000  3
   2245   2243   2252   2253     1  0.0000000  0.6508444  3
   2245   2243   2252   2254     1  0.0000000  0.6508444  3
   2247   2246   2258   4645     1  0.0000000  1.0460000  1
   2247   2246   2258   4645     1  0.0000000  0.0000000  3
   2247   2246   2258   2259     1  0.0000000  0.6508444  3
   2247   2246   2258   2260     1  0.0000000  0.6508444  3
   2248   2246   2258   4645     1  0.0000000  1.0460000  1
   2248   2246   2258   4645     1  0.0000000  0.0000000  3
   2248   2246   2258   2259     1  0.0000000  0.6508444  3
   2248   2246   2258   2260     1  0.0000000  0.6508444  3
   2250   2249   2255   4614     1  0.0000000  1.0460000  1
   2250   2249   2255   4614     1  0.0000000  0.0000000  3
   2250   2249   2255   2256     1  0.0000000  0.6508444  3
   2250   2249   2255   2257     1  0.0000000  0.6508444  3
   2251   2249   2255   4614     1  0.0000000  1.0460000  1
   2251   2249   2255   4614     1  0.0000000  0.0000000  3
   2251   2249   2255   2256     1  0.0000000  0.6508444  3
   2251   2249   2255   2257     1  0.0000000  0.6508444  3
   2255   4614   4584   4585     1  0.0000000  1.6038667  3
   2255   4614   4584   4586     1  0.0000000  1.6038667  3
   2256   2255   4614   4584     1  0.0000000  1.6038667  3
   2257   2255   4614   4584     1  0.0000000  1.6038667  3
   2258   4645   4615   4616     1  0.0000000  1.6038667  3
   2258   4645   4615   4617     1  0.0000000  1.6038667  3
   2259   2258   4645   4615     1  0.0000000  1.6038667  3
   2260   2258   4645   4615     1  0.0000000  1.6038667  3
   2262   2263   2275   2276     1  0.0000000  0.6508444  3
   2262   2263   2275   2277     1  0.0000000  0.6508444  3
   2262   2266   2278   2279     1  0.0000000  0.6508444  3
   2262   2266   2278   2280     1  0.0000000  0.6508444  3
   2262   2269   2272   2273     1  0.0000000  0.6508444  3
   2262   2269   2272   2274     1  0.0000000  0.6508444  3
   2263   2262   2266   2267     1  0.0000000  1.2552000  3
   2263   2262   2266   2268     1  0.0000000  1.2552000  3
   2263   2262   2269   2270     1  0.0000000  1.2552000  3
   2263   2262   2269   2271     1  0.0000000  1.2552000  3
   2263   2275   2287   2288     1  0.0000000  0.6508444  3
   2263   2275   2287   2289     1  0.0000000  0.6508444  3
   2264   2263   2262   2266     1  0.0000000  1.2552000  3
   2264   2263   2262   2269     1  0.0000000  1.2552000  3
   2264   2263   2275   2287     1  0.0000000  0.6508444  3
   2264   2263   2275   2276     1  0.0000000  0.6508444  3
   2264   2263   2275   2277     1  0.0000000  0.6508444  3
   2265   2263   2262   2266     1  0.0000000  1.2552000  3
   2265   2263   2262   2269     1  0.0000000  1.2552000  3
   2265   2263   2275   2287     1  0.0000000  0.6508444  3
   2265   2263   2275   2276     1  0.0000000  0.6508444  3
   2265   2263   2275   2277     1  0.0000000  0.6508444  3
   2266   2262   2269   2270     1  0.0000000  1.2552000  3
   2266   2262   2269   2271     1  0.0000000  1.2552000  3
   2266   2278   2284   2285     1  0.0000000  0.6508444  3
   2266   2278   2284   2286     1  0.0000000  0.6508444  3
   2267   2266   2262   2269     1  0.0000000  1.2552000  3
   2267   2266   2278   2284     1  0.0000000  0.6508444  3
   2267   2266   2278   2279     1  0.0000000  0.6508444  3
   2267   2266   2278   2280     1  0.0000000  0.6508444  3
   2268   2266   2262   2269     1  0.0000000  1.2552000  3
   2268   2266   2278   2284     1  0.0000000  0.6508444  3
   2268   2266   2278   2279     1  0.0000000  0.6508444  3
   2268   2266   2278   2280     1  0.0000000  0.6508444  3
   2269   2272   2281   2282     1  0.0000000  0.6508444  3
   2269   2272   2281   2283     1  0.0000000  0.6508444  3
   2270   2269   2272   2281     1  0.0000000  0.6508444  3
   2270   2269   2272   2273     1  0.0000000  0.6508444  3
   2270   2269   2272   2274     1  0.0000000  0.6508444  3
   2271   2269   2272   2281     1  0.0000000  0.6508444  3
   2271   2269   2272   2273     1  0.0000000  0.6508444  3
   2271   2269   2272   2274     1  0.0000000  0.6508444  3
   2273   2272   2281   2290     1  0.0000000  1.0460000  1
   2273   2272   2281   2290     1  0.0000000  0.0000000  3
   2273   2272   2281   2282     1  0.0000000  0.6508444  3
   2273   2272   2281   2283     1  0.0000000  0.6508444  3
   2274   2272   2281   2290     1  0.0000000  1.0460000  1
   2274   2272   2281   2290     1  0.0000000  0.0000000  3
   2274   2272   2281   2282     1  0.0000000  0.6508444  3
   2274   2272   2281   2283     1  0.0000000  0.6508444  3
   2276   2275   2287   4707     1  0.0000000  1.0460000  1
   2276   2275   2287   4707     1  0.0000000  0.0000000  3
   2276   2275   2287   2288     1  0.0000000  0.6508444  3
   2276   2275   2287   2289     1  0.0000000  0.6508444  3
   2277   2275   2287   4707     1  0.0000000  1.0460000  1
   2277   2275   2287   4707     1  0.0000000  0.0000000  3
   2277   2275   2287   2288     1  0.0000000  0.6508444  3
   2277   2275   2287   2289     1  0.0000000  0.6508444  3
   2279   2278   2284   4676     1  0.0000000  1.0460000  1
   2279   2278   2284   4676     1  0.0000000  0.0000000  3
   2279   2278   2284   2285     1  0.0000000  0.6508444  3
   2279   2278   2284   2286     1  0.0000000  0.6508444  3
   2280   2278   2284   4676     1  0.0000000  1.0460000  1
   2280   2278   2284   4676     1  0.0000000  0.0000000  3
   2280   2278   2284   2285     1  0.0000000  0.6508444  3
   2280   2278   2284   2286     1  0.0000000  0.6508444  3
   2284   4676   4646   4647     1  0.0000000  1.6038667  3
   2284   4676   4646   4648     1  0.0000000  1.6038667  3
   2285   2284   4676   4646     1  0.0000000  1.6038667  3
   2286   2284   4676   4646     1  0.0000000  1.6038667  3
   2287   4707   4677   4678     1  0.0000000  1.6038667  3
   2287   4707   4677   4679     1  0.0000000  1.6038667  3
   2288   2287   4707   4677     1  0.0000000  1.6038667  3
   2289   2287   4707   4677     1  0.0000000  1.6038667  3
   2291   2292   2304   2305     1  0.0000000  0.6508444  3
   2291   2292   2304   2306     1  0.0000000  0.6508444  3
   2291   2295   2307   2308     1  0.0000000  0.6508444  3
   2291   2295   2307   2309     1  0.0000000  0.6508444  3
   2291   2298   2301   2302     1  0.0000000  0.6508444  3
   2291   2298   2301   2303     1  0.0000000  0.6508444  3
   2292   2291   2295   2296     1  0.0000000  1.2552000  3
   2292   2291   2295   2297     1  0.0000000  1.2552000  3
   2292   2291   2298   2299     1  0.0000000  1.2552000  3
   2292   2291   2298   2300     1  0.0000000  1.2552000  3
   2292   2304   2316   2317     1  0.0000000  0.6508444  3
   2292   2304   2316   2318     1  0.0000000  0.6508444  3
   2293   2292   2291   2295     1  0.0000000  1.2552000  3
   2293   2292   2291   2298     1  0.0000000  1.2552000  3
   2293   2292   2304   2316     1  0.0000000  0.6508444  3
   2293   2292   2304   2305     1  0.0000000  0.6508444  3
   2293   2292   2304   2306     1  0.0000000  0.6508444  3
   2294   2292   2291   2295     1  0.0000000  1.2552000  3
   2294   2292   2291   2298     1  0.0000000  1.2552000  3
   2294   2292   2304   2316     1  0.0000000  0.6508444  3
   2294   2292   2304   2305     1  0.0000000  0.6508444  3
   2294   2292   2304   2306     1  0.0000000  0.6508444  3
   2295   2291   2298   2299     1  0.0000000  1.2552000  3
   2295   2291   2298   2300     1  0.0000000  1.2552000  3
   2295   2307   2313   2314     1  0.0000000  0.6508444  3
   2295   2307   2313   2315     1  0.0000000  0.6508444  3
   2296   2295   2291   2298     1  0.0000000  1.2552000  3
   2296   2295   2307   2313     1  0.0000000  0.6508444  3
   2296   2295   2307   2308     1  0.0000000  0.6508444  3
   2296   2295   2307   2309     1  0.0000000  0.6508444  3
   2297   2295   2291   2298     1  0.0000000  1.2552000  3
   2297   2295   2307   2313     1  0.0000000  0.6508444  3
   2297   2295   2307   2308     1  0.0000000  0.6508444  3
   2297   2295   2307   2309     1  0.0000000  0.6508444  3
   2298   2301   2310   2311     1  0.0000000  0.6508444  3
   2298   2301   2310   2312     1  0.0000000  0.6508444  3
   2299   2298   2301   2310     1  0.0000000  0.6508444  3
   2299   2298   2301   2302     1  0.0000000  0.6508444  3
   2299   2298   2301   2303     1  0.0000000  0.6508444  3
   2300   2298   2301   2310     1  0.0000000  0.6508444  3
   2300   2298   2301   2302     1  0.0000000  0.6508444  3
   2300   2298   2301   2303     1  0.0000000  0.6508444  3
   2302   2301   2310   2319     1  0.0000000  1.0460000  1
   2302   2301   2310   2319     1  0.0000000  0.0000000  3
   2302   2301   2310   2311     1  0.0000000  0.6508444  3
   2302   2301   2310   2312     1  0.0000000  0.6508444  3
   2303   2301   2310   2319     1  0.0000000  1.0460000  1
   2303   2301   2310   2319     1  0.0000000  0.0000000  3
   2303   2301   2310   2311     1  0.0000000  0.6508444  3
   2303   2301   2310   2312     1  0.0000000  0.6508444  3
   2305   2304   2316   4769     1  0.0000000  1.0460000  1
   2305   2304   2316   4769     1  0.0000000  0.0000000  3
   2305   2304   2316   2317     1  0.0000000  0.6508444  3
   2305   2304   2316   2318     1  0.0000000  0.6508444  3
   2306   2304   2316   4769     1  0.0000000  1.0460000  1
   2306   2304   2316   4769     1  0.0000000  0.0000000  3
   2306   2304   2316   2317     1  0.0000000  0.6508444  3
   2306   2304   2316   2318     1  0.0000000  0.6508444  3
   2308   2307   2313   4738     1  0.0000000  1.0460000  1
   2308   2307   2313   4738     1  0.0000000  0.0000000  3
   2308   2307   2313   2314     1  0.0000000  0.6508444  3
   2308   2307   2313   2315     1  0.0000000  0.6508444  3
   2309   2307   2313   4738     1  0.0000000  1.0460000  1
   2309   2307   2313   4738     1  0.0000000  0.0000000  3
   2309   2307   2313   2314     1  0.0000000  0.6508444  3
   2309   2307   2313   2315     1  0.0000000  0.6508444  3
   2313   4738   4708   4709     1  0.0000000  1.6038667  3
   2313   4738   4708   4710     1  0.0000000  1.6038667  3
   2314   2313   4738   4708     1  0.0000000  1.6038667  3
   2315   2313   4738   4708     1  0.0000000  1.6038667  3
   2316   4769   4739   4740     1  0.0000000  1.6038667  3
   2316   4769   4739   4741     1  0.0000000  1.6038667  3
   2317   2316   4769   4739     1  0.0000000  1.6038667  3
   2318   2316   4769   4739     1  0.0000000  1.6038667  3
   2320   2321   2333   2334     1  0.0000000  0.6508444  3
   2320   2321   2333   2335     1  0.0000000  0.6508444  3
   2320   2324   2336   2337     1  0.0000000  0.6508444  3
   2320   2324   2336   2338     1  0.0000000  0.6508444  3
   2320   2327   2330   2331     1  0.0000000  0.6508444  3
   2320   2327   2330   2332     1  0.0000000  0.6508444  3
   2321   2320   2324   2325     1  0.0000000  1.2552000  3
   2321   2320   2324   2326     1  0.0000000  1.2552000  3
   2321   2320   2327   2328     1  0.0000000  1.2552000  3
   2321   2320   2327   2329     1  0.0000000  1.2552000  3
   2321   2333   2345   2346     1  0.0000000  0.6508444  3
   2321   2333   2345   2347     1  0.0000000  0.6508444  3
   2322   2321   2320   2324     1  0.0000000  1.2552000  3
   2322   2321   2320   2327     1  0.0000000  1.2552000  3
   2322   2321   2333   2345     1  0.0000000  0.6508444  3
   2322   2321   2333   2334     1  0.0000000  0.6508444  3
   2322   2321   2333   2335     1  0.0000000  0.6508444  3
   2323   2321   2320   2324     1  0.0000000  1.2552000  3
   2323   2321   2320   2327     1  0.0000000  1.2552000  3
   2323   2321   2333   2345     1  0.0000000  0.6508444  3
   2323   2321   2333   2334     1  0.0000000  0.6508444  3
   2323   2321   2333   2335     1  0.0000000  0.6508444  3
   2324   2320   2327   2328     1  0.0000000  1.2552000  3
   2324   2320   2327   2329     1  0.0000000  1.2552000  3
   2324   2336   2342   2343     1  0.0000000  0.6508444  3
   2324   2336   2342   2344     1  0.0000000  0.6508444  3
   2325   2324   2320   2327     1  0.0000000  1.2552000  3
   2325   2324   2336   2342     1  0.0000000  0.6508444  3
   2325   2324   2336   2337     1  0.0000000  0.6508444  3
   2325   2324   2336   2338     1  0.0000000  0.6508444  3
   2326   2324   2320   2327     1  0.0000000  1.2552000  3
   2326   2324   2336   2342     1  0.0000000  0.6508444  3
   2326   2324   2336   2337     1  0.0000000  0.6508444  3
   2326   2324   2336   2338     1  0.0000000  0.6508444  3
   2327   2330   2339   2340     1  0.0000000  0.6508444  3
   2327   2330   2339   2341     1  0.0000000  0.6508444  3
   2328   2327   2330   2339     1  0.0000000  0.6508444  3
   2328   2327   2330   2331     1  0.0000000  0.6508444  3
   2328   2327   2330   2332     1  0.0000000  0.6508444  3
   2329   2327   2330   2339     1  0.0000000  0.6508444  3
   2329   2327   2330   2331     1  0.0000000  0.6508444  3
   2329   2327   2330   2332     1  0.0000000  0.6508444  3
   2331   2330   2339   2348     1  0.0000000  1.0460000  1
   2331   2330   2339   2348     1  0.0000000  0.0000000  3
   2331   2330   2339   2340     1  0.0000000  0.6508444  3
   2331   2330   2339   2341     1  0.0000000  0.6508444  3
   2332   2330   2339   2348     1  0.0000000  1.0460000  1
   2332   2330   2339   2348     1  0.0000000  0.0000000  3
   2332   2330   2339   2340     1  0.0000000  0.6508444  3
   2332   2330   2339   2341     1  0.0000000  0.6508444  3
   2334   2333   2345   4831     1  0.0000000  1.0460000  1
   2334   2333   2345   4831     1  0.0000000  0.0000000  3
   2334   2333   2345   2346     1  0.0000000  0.6508444  3
   2334   2333   2345   2347     1  0.0000000  0.6508444  3
   2335   2333   2345   4831     1  0.0000000  1.0460000  1
   2335   2333   2345   4831     1  0.0000000  0.0000000  3
   2335   2333   2345   2346     1  0.0000000  0.6508444  3
   2335   2333   2345   2347     1  0.0000000  0.6508444  3
   2337   2336   2342   4800     1  0.0000000  1.0460000  1
   2337   2336   2342   4800     1  0.0000000  0.0000000  3
   2337   2336   2342   2343     1  0.0000000  0.6508444  3
   2337   2336   2342   2344     1  0.0000000  0.6508444  3
   2338   2336   2342   4800     1  0.0000000  1.0460000  1
   2338   2336   2342   4800     1  0.0000000  0.0000000  3
   2338   2336   2342   2343     1  0.0000000  0.6508444  3
   2338   2336   2342   2344     1  0.0000000  0.6508444  3
   2342   4800   4770   4771     1  0.0000000  1.6038667  3
   2342   4800   4770   4772     1  0.0000000  1.6038667  3
   2343   2342   4800   4770     1  0.0000000  1.6038667  3
   2344   2342   4800   4770     1  0.0000000  1.6038667  3
   2345   4831   4801   4802     1  0.0000000  1.6038667  3
   2345   4831   4801   4803     1  0.0000000  1.6038667  3
   2346   2345   4831   4801     1  0.0000000  1.6038667  3
   2347   2345   4831   4801     1  0.0000000  1.6038667  3
   2349   2350   2362   2363     1  0.0000000  0.6508444  3
   2349   2350   2362   2364     1  0.0000000  0.6508444  3
   2349   2353   2365   2366     1  0.0000000  0.6508444  3
   2349   2353   2365   2367     1  0.0000000  0.6508444  3
   2349   2356   2359   2360     1  0.0000000  0.6508444  3
   2349   2356   2359   2361     1  0.0000000  0.6508444  3
   2350   2349   2353   2354     1  0.0000000  1.2552000  3
   2350   2349   2353   2355     1  0.0000000  1.2552000  3
   2350   2349   2356   2357     1  0.0000000  1.2552000  3
   2350   2349   2356   2358     1  0.0000000  1.2552000  3
   2350   2362   2374   2375     1  0.0000000  0.6508444  3
   2350   2362   2374   2376     1  0.0000000  0.6508444  3
   2351   2350   2349   2353     1  0.0000000  1.2552000  3
   2351   2350   2349   2356     1  0.0000000  1.2552000  3
   2351   2350   2362   2374     1  0.0000000  0.6508444  3
   2351   2350   2362   2363     1  0.0000000  0.6508444  3
   2351   2350   2362   2364     1  0.0000000  0.6508444  3
   2352   2350   2349   2353     1  0.0000000  1.2552000  3
   2352   2350   2349   2356     1  0.0000000  1.2552000  3
   2352   2350   2362   2374     1  0.0000000  0.6508444  3
   2352   2350   2362   2363     1  0.0000000  0.6508444  3
   2352   2350   2362   2364     1  0.0000000  0.6508444  3
   2353   2349   2356   2357     1  0.0000000  1.2552000  3
   2353   2349   2356   2358     1  0.0000000  1.2552000  3
   2353   2365   2371   2372     1  0.0000000  0.6508444  3
   2353   2365   2371   2373     1  0.0000000  0.6508444  3
   2354   2353   2349   2356     1  0.0000000  1.2552000  3
   2354   2353   2365   2371     1  0.0000000  0.6508444  3
   2354   2353   2365   2366     1  0.0000000  0.6508444  3
   2354   2353   2365   2367     1  0.0000000  0.6508444  3
   2355   2353   2349   2356     1  0.0000000  1.2552000  3
   2355   2353   2365   2371     1  0.0000000  0.6508444  3
   2355   2353   2365   2366     1  0.0000000  0.6508444  3
   2355   2353   2365   2367     1  0.0000000  0.6508444  3
   2356   2359   2368   2369     1  0.0000000  0.6508444  3
   2356   2359   2368   2370     1  0.0000000  0.6508444  3
   2357   2356   2359   2368     1  0.0000000  0.6508444  3
   2357   2356   2359   2360     1  0.0000000  0.6508444  3
   2357   2356   2359   2361     1  0.0000000  0.6508444  3
   2358   2356   2359   2368     1  0.0000000  0.6508444  3
   2358   2356   2359   2360     1  0.0000000  0.6508444  3
   2358   2356   2359   2361     1  0.0000000  0.6508444  3
   2360   2359   2368   2377     1  0.0000000  1.0460000  1
   2360   2359   2368   2377     1  0.0000000  0.0000000  3
   2360   2359   2368   2369     1  0.0000000  0.6508444  3
   2360   2359   2368   2370     1  0.0000000  0.6508444  3
   2361   2359   2368   2377     1  0.0000000  1.0460000  1
   2361   2359   2368   2377     1  0.0000000  0.0000000  3
   2361   2359   2368   2369     1  0.0000000  0.6508444  3
   2361   2359   2368   2370     1  0.0000000  0.6508444  3
   2363   2362   2374   4893     1  0.0000000  1.0460000  1
   2363   2362   2374   4893     1  0.0000000  0.0000000  3
   2363   2362   2374   2375     1  0.0000000  0.6508444  3
   2363   2362   2374   2376     1  0.0000000  0.6508444  3
   2364   2362   2374   4893     1  0.0000000  1.0460000  1
   2364   2362   2374   4893     1  0.0000000  0.0000000  3
   2364   2362   2374   2375     1  0.0000000  0.6508444  3
   2364   2362   2374   2376     1  0.0000000  0.6508444  3
   2366   2365   2371   4862     1  0.0000000  1.0460000  1
   2366   2365   2371   4862     1  0.0000000  0.0000000  3
   2366   2365   2371   2372     1  0.0000000  0.6508444  3
   2366   2365   2371   2373     1  0.0000000  0.6508444  3
   2367   2365   2371   4862     1  0.0000000  1.0460000  1
   2367   2365   2371   4862     1  0.0000000  0.0000000  3
   2367   2365   2371   2372     1  0.0000000  0.6508444  3
   2367   2365   2371   2373     1  0.0000000  0.6508444  3
   2371   4862   4832   4833     1  0.0000000  1.6038667  3
   2371   4862   4832   4834     1  0.0000000  1.6038667  3
   2372   2371   4862   4832     1  0.0000000  1.6038667  3
   2373   2371   4862   4832     1  0.0000000  1.6038667  3
   2374   4893   4863   4864     1  0.0000000  1.6038667  3
   2374   4893   4863   4865     1  0.0000000  1.6038667  3
   2375   2374   4893   4863     1  0.0000000  1.6038667  3
   2376   2374   4893   4863     1  0.0000000  1.6038667  3
   2378   2379   2391   2392     1  0.0000000  0.6508444  3
   2378   2379   2391   2393     1  0.0000000  0.6508444  3
   2378   2382   2394   2395     1  0.0000000  0.6508444  3
   2378   2382   2394   2396     1  0.0000000  0.6508444  3
   2378   2385   2388   2389     1  0.0000000  0.6508444  3
   2378   2385   2388   2390     1  0.0000000  0.6508444  3
   2379   2378   2382   2383     1  0.0000000  1.2552000  3
   2379   2378   2382   2384     1  0.0000000  1.2552000  3
   2379   2378   2385   2386     1  0.0000000  1.2552000  3
   2379   2378   2385   2387     1  0.0000000  1.2552000  3
   2379   2391   2403   2404     1  0.0000000  0.6508444  3
   2379   2391   2403   2405     1  0.0000000  0.6508444  3
   2380   2379   2378   2382     1  0.0000000  1.2552000  3
   2380   2379   2378   2385     1  0.0000000  1.2552000  3
   2380   2379   2391   2403     1  0.0000000  0.6508444  3
   2380   2379   2391   2392     1  0.0000000  0.6508444  3
   2380   2379   2391   2393     1  0.0000000  0.6508444  3
   2381   2379   2378   2382     1  0.0000000  1.2552000  3
   2381   2379   2378   2385     1  0.0000000  1.2552000  3
   2381   2379   2391   2403     1  0.0000000  0.6508444  3
   2381   2379   2391   2392     1  0.0000000  0.6508444  3
   2381   2379   2391   2393     1  0.0000000  0.6508444  3
   2382   2378   2385   2386     1  0.0000000  1.2552000  3
   2382   2378   2385   2387     1  0.0000000  1.2552000  3
   2382   2394   2400   2401     1  0.0000000  0.6508444  3
   2382   2394   2400   2402     1  0.0000000  0.6508444  3
   2383   2382   2378   2385     1  0.0000000  1.2552000  3
   2383   2382   2394   2400     1  0.0000000  0.6508444  3
   2383   2382   2394   2395     1  0.0000000  0.6508444  3
   2383   2382   2394   2396     1  0.0000000  0.6508444  3
   2384   2382   2378   2385     1  0.0000000  1.2552000  3
   2384   2382   2394   2400     1  0.0000000  0.6508444  3
   2384   2382   2394   2395     1  0.0000000  0.6508444  3
   2384   2382   2394   2396     1  0.0000000  0.6508444  3
   2385   2388   2397   2398     1  0.0000000  0.6508444  3
   2385   2388   2397   2399     1  0.0000000  0.6508444  3
   2386   2385   2388   2397     1  0.0000000  0.6508444  3
   2386   2385   2388   2389     1  0.0000000  0.6508444  3
   2386   2385   2388   2390     1  0.0000000  0.6508444  3
   2387   2385   2388   2397     1  0.0000000  0.6508444  3
   2387   2385   2388   2389     1  0.0000000  0.6508444  3
   2387   2385   2388   2390     1  0.0000000  0.6508444  3
   2389   2388   2397   2406     1  0.0000000  1.0460000  1
   2389   2388   2397   2406     1  0.0000000  0.0000000  3
   2389   2388   2397   2398     1  0.0000000  0.6508444  3
   2389   2388   2397   2399     1  0.0000000  0.6508444  3
   2390   2388   2397   2406     1  0.0000000  1.0460000  1
   2390   2388   2397   2406     1  0.0000000  0.0000000  3
   2390   2388   2397   2398     1  0.0000000  0.6508444  3
   2390   2388   2397   2399     1  0.0000000  0.6508444  3
   2392   2391   2403   4955     1  0.0000000  1.0460000  1
   2392   2391   2403   4955     1  0.0000000  0.0000000  3
   2392   2391   2403   2404     1  0.0000000  0.6508444  3
   2392   2391   2403   2405     1  0.0000000  0.6508444  3
   2393   2391   2403   4955     1  0.0000000  1.0460000  1
   2393   2391   2403   4955     1  0.0000000  0.0000000  3
   2393   2391   2403   2404     1  0.0000000  0.6508444  3
   2393   2391   2403   2405     1  0.0000000  0.6508444  3
   2395   2394   2400   4924     1  0.0000000  1.0460000  1
   2395   2394   2400   4924     1  0.0000000  0.0000000  3
   2395   2394   2400   2401     1  0.0000000  0.6508444  3
   2395   2394   2400   2402     1  0.0000000  0.6508444  3
   2396   2394   2400   4924     1  0.0000000  1.0460000  1
   2396   2394   2400   4924     1  0.0000000  0.0000000  3
   2396   2394   2400   2401     1  0.0000000  0.6508444  3
   2396   2394   2400   2402     1  0.0000000  0.6508444  3
   2400   4924   4894   4895     1  0.0000000  1.6038667  3
   2400   4924   4894   4896     1  0.0000000  1.6038667  3
   2401   2400   4924   4894     1  0.0000000  1.6038667  3
   2402   2400   4924   4894     1  0.0000000  1.6038667  3
   2403   4955   4925   4926     1  0.0000000  1.6038667  3
   2403   4955   4925   4927     1  0.0000000  1.6038667  3
   2404   2403   4955   4925     1  0.0000000  1.6038667  3
   2405   2403   4955   4925     1  0.0000000  1.6038667  3
   2407   2408   2420   2421     1  0.0000000  0.6508444  3
   2407   2408   2420   2422     1  0.0000000  0.6508444  3
   2407   2411   2423   2424     1  0.0000000  0.6508444  3
   2407   2411   2423   2425     1  0.0000000  0.6508444  3
   2407   2414   2417   2418     1  0.0000000  0.6508444  3
   2407   2414   2417   2419     1  0.0000000  0.6508444  3
   2408   2407   2411   2412     1  0.0000000  1.2552000  3
   2408   2407   2411   2413     1  0.0000000  1.2552000  3
   2408   2407   2414   2415     1  0.0000000  1.2552000  3
   2408   2407   2414   2416     1  0.0000000  1.2552000  3
   2408   2420   2432   2433     1  0.0000000  0.6508444  3
   2408   2420   2432   2434     1  0.0000000  0.6508444  3
   2409   2408   2407   2411     1  0.0000000  1.2552000  3
   2409   2408   2407   2414     1  0.0000000  1.2552000  3
   2409   2408   2420   2432     1  0.0000000  0.6508444  3
   2409   2408   2420   2421     1  0.0000000  0.6508444  3
   2409   2408   2420   2422     1  0.0000000  0.6508444  3
   2410   2408   2407   2411     1  0.0000000  1.2552000  3
   2410   2408   2407   2414     1  0.0000000  1.2552000  3
   2410   2408   2420   2432     1  0.0000000  0.6508444  3
   2410   2408   2420   2421     1  0.0000000  0.6508444  3
   2410   2408   2420   2422     1  0.0000000  0.6508444  3
   2411   2407   2414   2415     1  0.0000000  1.2552000  3
   2411   2407   2414   2416     1  0.0000000  1.2552000  3
   2411   2423   2429   2430     1  0.0000000  0.6508444  3
   2411   2423   2429   2431     1  0.0000000  0.6508444  3
   2412   2411   2407   2414     1  0.0000000  1.2552000  3
   2412   2411   2423   2429     1  0.0000000  0.6508444  3
   2412   2411   2423   2424     1  0.0000000  0.6508444  3
   2412   2411   2423   2425     1  0.0000000  0.6508444  3
   2413   2411   2407   2414     1  0.0000000  1.2552000  3
   2413   2411   2423   2429     1  0.0000000  0.6508444  3
   2413   2411   2423   2424     1  0.0000000  0.6508444  3
   2413   2411   2423   2425     1  0.0000000  0.6508444  3
   2414   2417   2426   2427     1  0.0000000  0.6508444  3
   2414   2417   2426   2428     1  0.0000000  0.6508444  3
   2415   2414   2417   2426     1  0.0000000  0.6508444  3
   2415   2414   2417   2418     1  0.0000000  0.6508444  3
   2415   2414   2417   2419     1  0.0000000  0.6508444  3
   2416   2414   2417   2426     1  0.0000000  0.6508444  3
   2416   2414   2417   2418     1  0.0000000  0.6508444  3
   2416   2414   2417   2419     1  0.0000000  0.6508444  3
   2418   2417   2426   2435     1  0.0000000  1.0460000  1
   2418   2417   2426   2435     1  0.0000000  0.0000000  3
   2418   2417   2426   2427     1  0.0000000  0.6508444  3
   2418   2417   2426   2428     1  0.0000000  0.6508444  3
   2419   2417   2426   2435     1  0.0000000  1.0460000  1
   2419   2417   2426   2435     1  0.0000000  0.0000000  3
   2419   2417   2426   2427     1  0.0000000  0.6508444  3
   2419   2417   2426   2428     1  0.0000000  0.6508444  3
   2421   2420   2432   5017     1  0.0000000  1.0460000  1
   2421   2420   2432   5017     1  0.0000000  0.0000000  3
   2421   2420   2432   2433     1  0.0000000  0.6508444  3
   2421   2420   2432   2434     1  0.0000000  0.6508444  3
   2422   2420   2432   5017     1  0.0000000  1.0460000  1
   2422   2420   2432   5017     1  0.0000000  0.0000000  3
   2422   2420   2432   2433     1  0.0000000  0.6508444  3
   2422   2420   2432   2434     1  0.0000000  0.6508444  3
   2424   2423   2429   4986     1  0.0000000  1.0460000  1
   2424   2423   2429   4986     1  0.0000000  0.0000000  3
   2424   2423   2429   2430     1  0.0000000  0.6508444  3
   2424   2423   2429   2431     1  0.0000000  0.6508444  3
   2425   2423   2429   4986     1  0.0000000  1.0460000  1
   2425   2423   2429   4986     1  0.0000000  0.0000000  3
   2425   2423   2429   2430     1  0.0000000  0.6508444  3
   2425   2423   2429   2431     1  0.0000000  0.6508444  3
   2429   4986   4956   4957     1  0.0000000  1.6038667  3
   2429   4986   4956   4958     1  0.0000000  1.6038667  3
   2430   2429   4986   4956     1  0.0000000  1.6038667  3
   2431   2429   4986   4956     1  0.0000000  1.6038667  3
   2432   5017   4987   4988     1  0.0000000  1.6038667  3
   2432   5017   4987   4989     1  0.0000000  1.6038667  3
   2433   2432   5017   4987     1  0.0000000  1.6038667  3
   2434   2432   5017   4987     1  0.0000000  1.6038667  3
   2436   2437   2449   2450     1  0.0000000  0.6508444  3
   2436   2437   2449   2451     1  0.0000000  0.6508444  3
   2436   2440   2452   2453     1  0.0000000  0.6508444  3
   2436   2440   2452   2454     1  0.0000000  0.6508444  3
   2436   2443   2446   2447     1  0.0000000  0.6508444  3
   2436   2443   2446   2448     1  0.0000000  0.6508444  3
   2437   2436   2440   2441     1  0.0000000  1.2552000  3
   2437   2436   2440   2442     1  0.0000000  1.2552000  3
   2437   2436   2443   2444     1  0.0000000  1.2552000  3
   2437   2436   2443   2445     1  0.0000000  1.2552000  3
   2437   2449   2461   2462     1  0.0000000  0.6508444  3
   2437   2449   2461   2463     1  0.0000000  0.6508444  3
   2438   2437   2436   2440     1  0.0000000  1.2552000  3
   2438   2437   2436   2443     1  0.0000000  1.2552000  3
   2438   2437   2449   2461     1  0.0000000  0.6508444  3
   2438   2437   2449   2450     1  0.0000000  0.6508444  3
   2438   2437   2449   2451     1  0.0000000  0.6508444  3
   2439   2437   2436   2440     1  0.0000000  1.2552000  3
   2439   2437   2436   2443     1  0.0000000  1.2552000  3
   2439   2437   2449   2461     1  0.0000000  0.6508444  3
   2439   2437   2449   2450     1  0.0000000  0.6508444  3
   2439   2437   2449   2451     1  0.0000000  0.6508444  3
   2440   2436   2443   2444     1  0.0000000  1.2552000  3
   2440   2436   2443   2445     1  0.0000000  1.2552000  3
   2440   2452   2458   2459     1  0.0000000  0.6508444  3
   2440   2452   2458   2460     1  0.0000000  0.6508444  3
   2441   2440   2436   2443     1  0.0000000  1.2552000  3
   2441   2440   2452   2458     1  0.0000000  0.6508444  3
   2441   2440   2452   2453     1  0.0000000  0.6508444  3
   2441   2440   2452   2454     1  0.0000000  0.6508444  3
   2442   2440   2436   2443     1  0.0000000  1.2552000  3
   2442   2440   2452   2458     1  0.0000000  0.6508444  3
   2442   2440   2452   2453     1  0.0000000  0.6508444  3
   2442   2440   2452   2454     1  0.0000000  0.6508444  3
   2443   2446   2455   2456     1  0.0000000  0.6508444  3
   2443   2446   2455   2457     1  0.0000000  0.6508444  3
   2444   2443   2446   2455     1  0.0000000  0.6508444  3
   2444   2443   2446   2447     1  0.0000000  0.6508444  3
   2444   2443   2446   2448     1  0.0000000  0.6508444  3
   2445   2443   2446   2455     1  0.0000000  0.6508444  3
   2445   2443   2446   2447     1  0.0000000  0.6508444  3
   2445   2443   2446   2448     1  0.0000000  0.6508444  3
   2447   2446   2455   2464     1  0.0000000  1.0460000  1
   2447   2446   2455   2464     1  0.0000000  0.0000000  3
   2447   2446   2455   2456     1  0.0000000  0.6508444  3
   2447   2446   2455   2457     1  0.0000000  0.6508444  3
   2448   2446   2455   2464     1  0.0000000  1.0460000  1
   2448   2446   2455   2464     1  0.0000000  0.0000000  3
   2448   2446   2455   2456     1  0.0000000  0.6508444  3
   2448   2446   2455   2457     1  0.0000000  0.6508444  3
   2450   2449   2461   5079     1  0.0000000  1.0460000  1
   2450   2449   2461   5079     1  0.0000000  0.0000000  3
   2450   2449   2461   2462     1  0.0000000  0.6508444  3
   2450   2449   2461   2463     1  0.0000000  0.6508444  3
   2451   2449   2461   5079     1  0.0000000  1.0460000  1
   2451   2449   2461   5079     1  0.0000000  0.0000000  3
   2451   2449   2461   2462     1  0.0000000  0.6508444  3
   2451   2449   2461   2463     1  0.0000000  0.6508444  3
   2453   2452   2458   5048     1  0.0000000  1.0460000  1
   2453   2452   2458   5048     1  0.0000000  0.0000000  3
   2453   2452   2458   2459     1  0.0000000  0.6508444  3
   2453   2452   2458   2460     1  0.0000000  0.6508444  3
   2454   2452   2458   5048     1  0.0000000  1.0460000  1
   2454   2452   2458   5048     1  0.0000000  0.0000000  3
   2454   2452   2458   2459     1  0.0000000  0.6508444  3
   2454   2452   2458   2460     1  0.0000000  0.6508444  3
   2458   5048   5018   5019     1  0.0000000  1.6038667  3
   2458   5048   5018   5020     1  0.0000000  1.6038667  3
   2459   2458   5048   5018     1  0.0000000  1.6038667  3
   2460   2458   5048   5018     1  0.0000000  1.6038667  3
   2461   5079   5049   5050     1  0.0000000  1.6038667  3
   2461   5079   5049   5051     1  0.0000000  1.6038667  3
   2462   2461   5079   5049     1  0.0000000  1.6038667  3
   2463   2461   5079   5049     1  0.0000000  1.6038667  3
   2465   2466   2478   2479     1  0.0000000  0.6508444  3
   2465   2466   2478   2480     1  0.0000000  0.6508444  3
   2465   2469   2481   2482     1  0.0000000  0.6508444  3
   2465   2469   2481   2483     1  0.0000000  0.6508444  3
   2465   2472   2475   2476     1  0.0000000  0.6508444  3
   2465   2472   2475   2477     1  0.0000000  0.6508444  3
   2466   2465   2469   2470     1  0.0000000  1.2552000  3
   2466   2465   2469   2471     1  0.0000000  1.2552000  3
   2466   2465   2472   2473     1  0.0000000  1.2552000  3
   2466   2465   2472   2474     1  0.0000000  1.2552000  3
   2466   2478   2490   2491     1  0.0000000  0.6508444  3
   2466   2478   2490   2492     1  0.0000000  0.6508444  3
   2467   2466   2465   2469     1  0.0000000  1.2552000  3
   2467   2466   2465   2472     1  0.0000000  1.2552000  3
   2467   2466   2478   2490     1  0.0000000  0.6508444  3
   2467   2466   2478   2479     1  0.0000000  0.6508444  3
   2467   2466   2478   2480     1  0.0000000  0.6508444  3
   2468   2466   2465   2469     1  0.0000000  1.2552000  3
   2468   2466   2465   2472     1  0.0000000  1.2552000  3
   2468   2466   2478   2490     1  0.0000000  0.6508444  3
   2468   2466   2478   2479     1  0.0000000  0.6508444  3
   2468   2466   2478   2480     1  0.0000000  0.6508444  3
   2469   2465   2472   2473     1  0.0000000  1.2552000  3
   2469   2465   2472   2474     1  0.0000000  1.2552000  3
   2469   2481   2487   2488     1  0.0000000  0.6508444  3
   2469   2481   2487   2489     1  0.0000000  0.6508444  3
   2470   2469   2465   2472     1  0.0000000  1.2552000  3
   2470   2469   2481   2487     1  0.0000000  0.6508444  3
   2470   2469   2481   2482     1  0.0000000  0.6508444  3
   2470   2469   2481   2483     1  0.0000000  0.6508444  3
   2471   2469   2465   2472     1  0.0000000  1.2552000  3
   2471   2469   2481   2487     1  0.0000000  0.6508444  3
   2471   2469   2481   2482     1  0.0000000  0.6508444  3
   2471   2469   2481   2483     1  0.0000000  0.6508444  3
   2472   2475   2484   2485     1  0.0000000  0.6508444  3
   2472   2475   2484   2486     1  0.0000000  0.6508444  3
   2473   2472   2475   2484     1  0.0000000  0.6508444  3
   2473   2472   2475   2476     1  0.0000000  0.6508444  3
   2473   2472   2475   2477     1  0.0000000  0.6508444  3
   2474   2472   2475   2484     1  0.0000000  0.6508444  3
   2474   2472   2475   2476     1  0.0000000  0.6508444  3
   2474   2472   2475   2477     1  0.0000000  0.6508444  3
   2476   2475   2484   2493     1  0.0000000  1.0460000  1
   2476   2475   2484   2493     1  0.0000000  0.0000000  3
   2476   2475   2484   2485     1  0.0000000  0.6508444  3
   2476   2475   2484   2486     1  0.0000000  0.6508444  3
   2477   2475   2484   2493     1  0.0000000  1.0460000  1
   2477   2475   2484   2493     1  0.0000000  0.0000000  3
   2477   2475   2484   2485     1  0.0000000  0.6508444  3
   2477   2475   2484   2486     1  0.0000000  0.6508444  3
   2479   2478   2490   5141     1  0.0000000  1.0460000  1
   2479   2478   2490   5141     1  0.0000000  0.0000000  3
   2479   2478   2490   2491     1  0.0000000  0.6508444  3
   2479   2478   2490   2492     1  0.0000000  0.6508444  3
   2480   2478   2490   5141     1  0.0000000  1.0460000  1
   2480   2478   2490   5141     1  0.0000000  0.0000000  3
   2480   2478   2490   2491     1  0.0000000  0.6508444  3
   2480   2478   2490   2492     1  0.0000000  0.6508444  3
   2482   2481   2487   5110     1  0.0000000  1.0460000  1
   2482   2481   2487   5110     1  0.0000000  0.0000000  3
   2482   2481   2487   2488     1  0.0000000  0.6508444  3
   2482   2481   2487   2489     1  0.0000000  0.6508444  3
   2483   2481   2487   5110     1  0.0000000  1.0460000  1
   2483   2481   2487   5110     1  0.0000000  0.0000000  3
   2483   2481   2487   2488     1  0.0000000  0.6508444  3
   2483   2481   2487   2489     1  0.0000000  0.6508444  3
   2487   5110   5080   5081     1  0.0000000  1.6038667  3
   2487   5110   5080   5082     1  0.0000000  1.6038667  3
   2488   2487   5110   5080     1  0.0000000  1.6038667  3
   2489   2487   5110   5080     1  0.0000000  1.6038667  3
   2490   5141   5111   5112     1  0.0000000  1.6038667  3
   2490   5141   5111   5113     1  0.0000000  1.6038667  3
   2491   2490   5141   5111     1  0.0000000  1.6038667  3
   2492   2490   5141   5111     1  0.0000000  1.6038667  3
   2494   2495   2507   2508     1  0.0000000  0.6508444  3
   2494   2495   2507   2509     1  0.0000000  0.6508444  3
   2494   2498   2510   2511     1  0.0000000  0.6508444  3
   2494   2498   2510   2512     1  0.0000000  0.6508444  3
   2494   2501   2504   2505     1  0.0000000  0.6508444  3
   2494   2501   2504   2506     1  0.0000000  0.6508444  3
   2495   2494   2498   2499     1  0.0000000  1.2552000  3
   2495   2494   2498   2500     1  0.0000000  1.2552000  3
   2495   2494   2501   2502     1  0.0000000  1.2552000  3
   2495   2494   2501   2503     1  0.0000000  1.2552000  3
   2495   2507   2519   2520     1  0.0000000  0.6508444  3
   2495   2507   2519   2521     1  0.0000000  0.6508444  3
   2496   2495   2494   2498     1  0.0000000  1.2552000  3
   2496   2495   2494   2501     1  0.0000000  1.2552000  3
   2496   2495   2507   2519     1  0.0000000  0.6508444  3
   2496   2495   2507   2508     1  0.0000000  0.6508444  3
   2496   2495   2507   2509     1  0.0000000  0.6508444  3
   2497   2495   2494   2498     1  0.0000000  1.2552000  3
   2497   2495   2494   2501     1  0.0000000  1.2552000  3
   2497   2495   2507   2519     1  0.0000000  0.6508444  3
   2497   2495   2507   2508     1  0.0000000  0.6508444  3
   2497   2495   2507   2509     1  0.0000000  0.6508444  3
   2498   2494   2501   2502     1  0.0000000  1.2552000  3
   2498   2494   2501   2503     1  0.0000000  1.2552000  3
   2498   2510   2516   2517     1  0.0000000  0.6508444  3
   2498   2510   2516   2518     1  0.0000000  0.6508444  3
   2499   2498   2494   2501     1  0.0000000  1.2552000  3
   2499   2498   2510   2516     1  0.0000000  0.6508444  3
   2499   2498   2510   2511     1  0.0000000  0.6508444  3
   2499   2498   2510   2512     1  0.0000000  0.6508444  3
   2500   2498   2494   2501     1  0.0000000  1.2552000  3
   2500   2498   2510   2516     1  0.0000000  0.6508444  3
   2500   2498   2510   2511     1  0.0000000  0.6508444  3
   2500   2498   2510   2512     1  0.0000000  0.6508444  3
   2501   2504   2513   2514     1  0.0000000  0.6508444  3
   2501   2504   2513   2515     1  0.0000000  0.6508444  3
   2502   2501   2504   2513     1  0.0000000  0.6508444  3
   2502   2501   2504   2505     1  0.0000000  0.6508444  3
   2502   2501   2504   2506     1  0.0000000  0.6508444  3
   2503   2501   2504   2513     1  0.0000000  0.6508444  3
   2503   2501   2504   2505     1  0.0000000  0.6508444  3
   2503   2501   2504   2506     1  0.0000000  0.6508444  3
   2505   2504   2513   2522     1  0.0000000  1.0460000  1
   2505   2504   2513   2522     1  0.0000000  0.0000000  3
   2505   2504   2513   2514     1  0.0000000  0.6508444  3
   2505   2504   2513   2515     1  0.0000000  0.6508444  3
   2506   2504   2513   2522     1  0.0000000  1.0460000  1
   2506   2504   2513   2522     1  0.0000000  0.0000000  3
   2506   2504   2513   2514     1  0.0000000  0.6508444  3
   2506   2504   2513   2515     1  0.0000000  0.6508444  3
   2508   2507   2519   5203     1  0.0000000  1.0460000  1
   2508   2507   2519   5203     1  0.0000000  0.0000000  3
   2508   2507   2519   2520     1  0.0000000  0.6508444  3
   2508   2507   2519   2521     1  0.0000000  0.6508444  3
   2509   2507   2519   5203     1  0.0000000  1.0460000  1
   2509   2507   2519   5203     1  0.0000000  0.0000000  3
   2509   2507   2519   2520     1  0.0000000  0.6508444  3
   2509   2507   2519   2521     1  0.0000000  0.6508444  3
   2511   2510   2516   5172     1  0.0000000  1.0460000  1
   2511   2510   2516   5172     1  0.0000000  0.0000000  3
   2511   2510   2516   2517     1  0.0000000  0.6508444  3
   2511   2510   2516   2518     1  0.0000000  0.6508444  3
   2512   2510   2516   5172     1  0.0000000  1.0460000  1
   2512   2510   2516   5172     1  0.0000000  0.0000000  3
   2512   2510   2516   2517     1  0.0000000  0.6508444  3
   2512   2510   2516   2518     1  0.0000000  0.6508444  3
   2516   5172   5142   5143     1  0.0000000  1.6038667  3
   2516   5172   5142   5144     1  0.0000000  1.6038667  3
   2517   2516   5172   5142     1  0.0000000  1.6038667  3
   2518   2516   5172   5142     1  0.0000000  1.6038667  3
   2519   5203   5173   5174     1  0.0000000  1.6038667  3
   2519   5203   5173   5175     1  0.0000000  1.6038667  3
   2520   2519   5203   5173     1  0.0000000  1.6038667  3
   2521   2519   5203   5173     1  0.0000000  1.6038667  3
   2523   2524   2536   2537     1  0.0000000  0.6508444  3
   2523   2524   2536   2538     1  0.0000000  0.6508444  3
   2523   2527   2539   2540     1  0.0000000  0.6508444  3
   2523   2527   2539   2541     1  0.0000000  0.6508444  3
   2523   2530   2533   2534     1  0.0000000  0.6508444  3
   2523   2530   2533   2535     1  0.0000000  0.6508444  3
   2524   2523   2527   2528     1  0.0000000  1.2552000  3
   2524   2523   2527   2529     1  0.0000000  1.2552000  3
   2524   2523   2530   2531     1  0.0000000  1.2552000  3
   2524   2523   2530   2532     1  0.0000000  1.2552000  3
   2524   2536   2548   2549     1  0.0000000  0.6508444  3
   2524   2536   2548   2550     1  0.0000000  0.6508444  3
   2525   2524   2523   2527     1  0.0000000  1.2552000  3
   2525   2524   2523   2530     1  0.0000000  1.2552000  3
   2525   2524   2536   2548     1  0.0000000  0.6508444  3
   2525   2524   2536   2537     1  0.0000000  0.6508444  3
   2525   2524   2536   2538     1  0.0000000  0.6508444  3
   2526   2524   2523   2527     1  0.0000000  1.2552000  3
   2526   2524   2523   2530     1  0.0000000  1.2552000  3
   2526   2524   2536   2548     1  0.0000000  0.6508444  3
   2526   2524   2536   2537     1  0.0000000  0.6508444  3
   2526   2524   2536   2538     1  0.0000000  0.6508444  3
   2527   2523   2530   2531     1  0.0000000  1.2552000  3
   2527   2523   2530   2532     1  0.0000000  1.2552000  3
   2527   2539   2545   2546     1  0.0000000  0.6508444  3
   2527   2539   2545   2547     1  0.0000000  0.6508444  3
   2528   2527   2523   2530     1  0.0000000  1.2552000  3
   2528   2527   2539   2545     1  0.0000000  0.6508444  3
   2528   2527   2539   2540     1  0.0000000  0.6508444  3
   2528   2527   2539   2541     1  0.0000000  0.6508444  3
   2529   2527   2523   2530     1  0.0000000  1.2552000  3
   2529   2527   2539   2545     1  0.0000000  0.6508444  3
   2529   2527   2539   2540     1  0.0000000  0.6508444  3
   2529   2527   2539   2541     1  0.0000000  0.6508444  3
   2530   2533   2542   2543     1  0.0000000  0.6508444  3
   2530   2533   2542   2544     1  0.0000000  0.6508444  3
   2531   2530   2533   2542     1  0.0000000  0.6508444  3
   2531   2530   2533   2534     1  0.0000000  0.6508444  3
   2531   2530   2533   2535     1  0.0000000  0.6508444  3
   2532   2530   2533   2542     1  0.0000000  0.6508444  3
   2532   2530   2533   2534     1  0.0000000  0.6508444  3
   2532   2530   2533   2535     1  0.0000000  0.6508444  3
   2534   2533   2542   2551     1  0.0000000  1.0460000  1
   2534   2533   2542   2551     1  0.0000000  0.0000000  3
   2534   2533   2542   2543     1  0.0000000  0.6508444  3
   2534   2533   2542   2544     1  0.0000000  0.6508444  3
   2535   2533   2542   2551     1  0.0000000  1.0460000  1
   2535   2533   2542   2551     1  0.0000000  0.0000000  3
   2535   2533   2542   2543     1  0.0000000  0.6508444  3
   2535   2533   2542   2544     1  0.0000000  0.6508444  3
   2537   2536   2548   5265     1  0.0000000  1.0460000  1
   2537   2536   2548   5265     1  0.0000000  0.0000000  3
   2537   2536   2548   2549     1  0.0000000  0.6508444  3
   2537   2536   2548   2550     1  0.0000000  0.6508444  3
   2538   2536   2548   5265     1  0.0000000  1.0460000  1
   2538   2536   2548   5265     1  0.0000000  0.0000000  3
   2538   2536   2548   2549     1  0.0000000  0.6508444  3
   2538   2536   2548   2550     1  0.0000000  0.6508444  3
   2540   2539   2545   5234     1  0.0000000  1.0460000  1
   2540   2539   2545   5234     1  0.0000000  0.0000000  3
   2540   2539   2545   2546     1  0.0000000  0.6508444  3
   2540   2539   2545   2547     1  0.0000000  0.6508444  3
   2541   2539   2545   5234     1  0.0000000  1.0460000  1
   2541   2539   2545   5234     1  0.0000000  0.0000000  3
   2541   2539   2545   2546     1  0.0000000  0.6508444  3
   2541   2539   2545   2547     1  0.0000000  0.6508444  3
   2545   5234   5204   5205     1  0.0000000  1.6038667  3
   2545   5234   5204   5206     1  0.0000000  1.6038667  3
   2546   2545   5234   5204     1  0.0000000  1.6038667  3
   2547   2545   5234   5204     1  0.0000000  1.6038667  3
   2548   5265   5235   5236     1  0.0000000  1.6038667  3
   2548   5265   5235   5237     1  0.0000000  1.6038667  3
   2549   2548   5265   5235     1  0.0000000  1.6038667  3
   2550   2548   5265   5235     1  0.0000000  1.6038667  3
   2552   2553   2565   2566     1  0.0000000  0.6508444  3
   2552   2553   2565   2567     1  0.0000000  0.6508444  3
   2552   2556   2568   2569     1  0.0000000  0.6508444  3
   2552   2556   2568   2570     1  0.0000000  0.6508444  3
   2552   2559   2562   2563     1  0.0000000  0.6508444  3
   2552   2559   2562   2564     1  0.0000000  0.6508444  3
   2553   2552   2556   2557     1  0.0000000  1.2552000  3
   2553   2552   2556   2558     1  0.0000000  1.2552000  3
   2553   2552   2559   2560     1  0.0000000  1.2552000  3
   2553   2552   2559   2561     1  0.0000000  1.2552000  3
   2553   2565   2577   2578     1  0.0000000  0.6508444  3
   2553   2565   2577   2579     1  0.0000000  0.6508444  3
   2554   2553   2552   2556     1  0.0000000  1.2552000  3
   2554   2553   2552   2559     1  0.0000000  1.2552000  3
   2554   2553   2565   2577     1  0.0000000  0.6508444  3
   2554   2553   2565   2566     1  0.0000000  0.6508444  3
   2554   2553   2565   2567     1  0.0000000  0.6508444  3
   2555   2553   2552   2556     1  0.0000000  1.2552000  3
   2555   2553   2552   2559     1  0.0000000  1.2552000  3
   2555   2553   2565   2577     1  0.0000000  0.6508444  3
   2555   2553   2565   2566     1  0.0000000  0.6508444  3
   2555   2553   2565   2567     1  0.0000000  0.6508444  3
   2556   2552   2559   2560     1  0.0000000  1.2552000  3
   2556   2552   2559   2561     1  0.0000000  1.2552000  3
   2556   2568   2574   2575     1  0.0000000  0.6508444  3
   2556   2568   2574   2576     1  0.0000000  0.6508444  3
   2557   2556   2552   2559     1  0.0000000  1.2552000  3
   2557   2556   2568   2574     1  0.0000000  0.6508444  3
   2557   2556   2568   2569     1  0.0000000  0.6508444  3
   2557   2556   2568   2570     1  0.0000000  0.6508444  3
   2558   2556   2552   2559     1  0.0000000  1.2552000  3
   2558   2556   2568   2574     1  0.0000000  0.6508444  3
   2558   2556   2568   2569     1  0.0000000  0.6508444  3
   2558   2556   2568   2570     1  0.0000000  0.6508444  3
   2559   2562   2571   2572     1  0.0000000  0.6508444  3
   2559   2562   2571   2573     1  0.0000000  0.6508444  3
   2560   2559   2562   2571     1  0.0000000  0.6508444  3
   2560   2559   2562   2563     1  0.0000000  0.6508444  3
   2560   2559   2562   2564     1  0.0000000  0.6508444  3
   2561   2559   2562   2571     1  0.0000000  0.6508444  3
   2561   2559   2562   2563     1  0.0000000  0.6508444  3
   2561   2559   2562   2564     1  0.0000000  0.6508444  3
   2563   2562   2571   2580     1  0.0000000  1.0460000  1
   2563   2562   2571   2580     1  0.0000000  0.0000000  3
   2563   2562   2571   2572     1  0.0000000  0.6508444  3
   2563   2562   2571   2573     1  0.0000000  0.6508444  3
   2564   2562   2571   2580     1  0.0000000  1.0460000  1
   2564   2562   2571   2580     1  0.0000000  0.0000000  3
   2564   2562   2571   2572     1  0.0000000  0.6508444  3
   2564   2562   2571   2573     1  0.0000000  0.6508444  3
   2566   2565   2577   5327     1  0.0000000  1.0460000  1
   2566   2565   2577   5327     1  0.0000000  0.0000000  3
   2566   2565   2577   2578     1  0.0000000  0.6508444  3
   2566   2565   2577   2579     1  0.0000000  0.6508444  3
   2567   2565   2577   5327     1  0.0000000  1.0460000  1
   2567   2565   2577   5327     1  0.0000000  0.0000000  3
   2567   2565   2577   2578     1  0.0000000  0.6508444  3
   2567   2565   2577   2579     1  0.0000000  0.6508444  3
   2569   2568   2574   5296     1  0.0000000  1.0460000  1
   2569   2568   2574   5296     1  0.0000000  0.0000000  3
   2569   2568   2574   2575     1  0.0000000  0.6508444  3
   2569   2568   2574   2576     1  0.0000000  0.6508444  3
   2570   2568   2574   5296     1  0.0000000  1.0460000  1
   2570   2568   2574   5296     1  0.0000000  0.0000000  3
   2570   2568   2574   2575     1  0.0000000  0.6508444  3
   2570   2568   2574   2576     1  0.0000000  0.6508444  3
   2574   5296   5266   5267     1  0.0000000  1.6038667  3
   2574   5296   5266   5268     1  0.0000000  1.6038667  3
   2575   2574   5296   5266     1  0.0000000  1.6038667  3
   2576   2574   5296   5266     1  0.0000000  1.6038667  3
   2577   5327   5297   5298     1  0.0000000  1.6038667  3
   2577   5327   5297   5299     1  0.0000000  1.6038667  3
   2578   2577   5327   5297     1  0.0000000  1.6038667  3
   2579   2577   5327   5297     1  0.0000000  1.6038667  3
   2581   2582   2594   2595     1  0.0000000  0.6508444  3
   2581   2582   2594   2596     1  0.0000000  0.6508444  3
   2581   2585   2597   2598     1  0.0000000  0.6508444  3
   2581   2585   2597   2599     1  0.0000000  0.6508444  3
   2581   2588   2591   2592     1  0.0000000  0.6508444  3
   2581   2588   2591   2593     1  0.0000000  0.6508444  3
   2582   2581   2585   2586     1  0.0000000  1.2552000  3
   2582   2581   2585   2587     1  0.0000000  1.2552000  3
   2582   2581   2588   2589     1  0.0000000  1.2552000  3
   2582   2581   2588   2590     1  0.0000000  1.2552000  3
   2582   2594   2606   2607     1  0.0000000  0.6508444  3
   2582   2594   2606   2608     1  0.0000000  0.6508444  3
   2583   2582   2581   2585     1  0.0000000  1.2552000  3
   2583   2582   2581   2588     1  0.0000000  1.2552000  3
   2583   2582   2594   2606     1  0.0000000  0.6508444  3
   2583   2582   2594   2595     1  0.0000000  0.6508444  3
   2583   2582   2594   2596     1  0.0000000  0.6508444  3
   2584   2582   2581   2585     1  0.0000000  1.2552000  3
   2584   2582   2581   2588     1  0.0000000  1.2552000  3
   2584   2582   2594   2606     1  0.0000000  0.6508444  3
   2584   2582   2594   2595     1  0.0000000  0.6508444  3
   2584   2582   2594   2596     1  0.0000000  0.6508444  3
   2585   2581   2588   2589     1  0.0000000  1.2552000  3
   2585   2581   2588   2590     1  0.0000000  1.2552000  3
   2585   2597   2603   2604     1  0.0000000  0.6508444  3
   2585   2597   2603   2605     1  0.0000000  0.6508444  3
   2586   2585   2581   2588     1  0.0000000  1.2552000  3
   2586   2585   2597   2603     1  0.0000000  0.6508444  3
   2586   2585   2597   2598     1  0.0000000  0.6508444  3
   2586   2585   2597   2599     1  0.0000000  0.6508444  3
   2587   2585   2581   2588     1  0.0000000  1.2552000  3
   2587   2585   2597   2603     1  0.0000000  0.6508444  3
   2587   2585   2597   2598     1  0.0000000  0.6508444  3
   2587   2585   2597   2599     1  0.0000000  0.6508444  3
   2588   2591   2600   2601     1  0.0000000  0.6508444  3
   2588   2591   2600   2602     1  0.0000000  0.6508444  3
   2589   2588   2591   2600     1  0.0000000  0.6508444  3
   2589   2588   2591   2592     1  0.0000000  0.6508444  3
   2589   2588   2591   2593     1  0.0000000  0.6508444  3
   2590   2588   2591   2600     1  0.0000000  0.6508444  3
   2590   2588   2591   2592     1  0.0000000  0.6508444  3
   2590   2588   2591   2593     1  0.0000000  0.6508444  3
   2592   2591   2600   2609     1  0.0000000  1.0460000  1
   2592   2591   2600   2609     1  0.0000000  0.0000000  3
   2592   2591   2600   2601     1  0.0000000  0.6508444  3
   2592   2591   2600   2602     1  0.0000000  0.6508444  3
   2593   2591   2600   2609     1  0.0000000  1.0460000  1
   2593   2591   2600   2609     1  0.0000000  0.0000000  3
   2593   2591   2600   2601     1  0.0000000  0.6508444  3
   2593   2591   2600   2602     1  0.0000000  0.6508444  3
   2595   2594   2606   5389     1  0.0000000  1.0460000  1
   2595   2594   2606   5389     1  0.0000000  0.0000000  3
   2595   2594   2606   2607     1  0.0000000  0.6508444  3
   2595   2594   2606   2608     1  0.0000000  0.6508444  3
   2596   2594   2606   5389     1  0.0000000  1.0460000  1
   2596   2594   2606   5389     1  0.0000000  0.0000000  3
   2596   2594   2606   2607     1  0.0000000  0.6508444  3
   2596   2594   2606   2608     1  0.0000000  0.6508444  3
   2598   2597   2603   5358     1  0.0000000  1.0460000  1
   2598   2597   2603   5358     1  0.0000000  0.0000000  3
   2598   2597   2603   2604     1  0.0000000  0.6508444  3
   2598   2597   2603   2605     1  0.0000000  0.6508444  3
   2599   2597   2603   5358     1  0.0000000  1.0460000  1
   2599   2597   2603   5358     1  0.0000000  0.0000000  3
   2599   2597   2603   2604     1  0.0000000  0.6508444  3
   2599   2597   2603   2605     1  0.0000000  0.6508444  3
   2603   5358   5328   5329     1  0.0000000  1.6038667  3
   2603   5358   5328   5330     1  0.0000000  1.6038667  3
   2604   2603   5358   5328     1  0.0000000  1.6038667  3
   2605   2603   5358   5328     1  0.0000000  1.6038667  3
   2606   5389   5359   5360     1  0.0000000  1.6038667  3
   2606   5389   5359   5361     1  0.0000000  1.6038667  3
   2607   2606   5389   5359     1  0.0000000  1.6038667  3
   2608   2606   5389   5359     1  0.0000000  1.6038667  3
   2610   2611   2623   2624     1  0.0000000  0.6508444  3
   2610   2611   2623   2625     1  0.0000000  0.6508444  3
   2610   2614   2626   2627     1  0.0000000  0.6508444  3
   2610   2614   2626   2628     1  0.0000000  0.6508444  3
   2610   2617   2620   2621     1  0.0000000  0.6508444  3
   2610   2617   2620   2622     1  0.0000000  0.6508444  3
   2611   2610   2614   2615     1  0.0000000  1.2552000  3
   2611   2610   2614   2616     1  0.0000000  1.2552000  3
   2611   2610   2617   2618     1  0.0000000  1.2552000  3
   2611   2610   2617   2619     1  0.0000000  1.2552000  3
   2611   2623   2635   2636     1  0.0000000  0.6508444  3
   2611   2623   2635   2637     1  0.0000000  0.6508444  3
   2612   2611   2610   2614     1  0.0000000  1.2552000  3
   2612   2611   2610   2617     1  0.0000000  1.2552000  3
   2612   2611   2623   2635     1  0.0000000  0.6508444  3
   2612   2611   2623   2624     1  0.0000000  0.6508444  3
   2612   2611   2623   2625     1  0.0000000  0.6508444  3
   2613   2611   2610   2614     1  0.0000000  1.2552000  3
   2613   2611   2610   2617     1  0.0000000  1.2552000  3
   2613   2611   2623   2635     1  0.0000000  0.6508444  3
   2613   2611   2623   2624     1  0.0000000  0.6508444  3
   2613   2611   2623   2625     1  0.0000000  0.6508444  3
   2614   2610   2617   2618     1  0.0000000  1.2552000  3
   2614   2610   2617   2619     1  0.0000000  1.2552000  3
   2614   2626   2632   2633     1  0.0000000  0.6508444  3
   2614   2626   2632   2634     1  0.0000000  0.6508444  3
   2615   2614   2610   2617     1  0.0000000  1.2552000  3
   2615   2614   2626   2632     1  0.0000000  0.6508444  3
   2615   2614   2626   2627     1  0.0000000  0.6508444  3
   2615   2614   2626   2628     1  0.0000000  0.6508444  3
   2616   2614   2610   2617     1  0.0000000  1.2552000  3
   2616   2614   2626   2632     1  0.0000000  0.6508444  3
   2616   2614   2626   2627     1  0.0000000  0.6508444  3
   2616   2614   2626   2628     1  0.0000000  0.6508444  3
   2617   2620   2629   2630     1  0.0000000  0.6508444  3
   2617   2620   2629   2631     1  0.0000000  0.6508444  3
   2618   2617   2620   2629     1  0.0000000  0.6508444  3
   2618   2617   2620   2621     1  0.0000000  0.6508444  3
   2618   2617   2620   2622     1  0.0000000  0.6508444  3
   2619   2617   2620   2629     1  0.0000000  0.6508444  3
   2619   2617   2620   2621     1  0.0000000  0.6508444  3
   2619   2617   2620   2622     1  0.0000000  0.6508444  3
   2621   2620   2629   2638     1  0.0000000  1.0460000  1
   2621   2620   2629   2638     1  0.0000000  0.0000000  3
   2621   2620   2629   2630     1  0.0000000  0.6508444  3
   2621   2620   2629   2631     1  0.0000000  0.6508444  3
   2622   2620   2629   2638     1  0.0000000  1.0460000  1
   2622   2620   2629   2638     1  0.0000000  0.0000000  3
   2622   2620   2629   2630     1  0.0000000  0.6508444  3
   2622   2620   2629   2631     1  0.0000000  0.6508444  3
   2624   2623   2635   5451     1  0.0000000  1.0460000  1
   2624   2623   2635   5451     1  0.0000000  0.0000000  3
   2624   2623   2635   2636     1  0.0000000  0.6508444  3
   2624   2623   2635   2637     1  0.0000000  0.6508444  3
   2625   2623   2635   5451     1  0.0000000  1.0460000  1
   2625   2623   2635   5451     1  0.0000000  0.0000000  3
   2625   2623   2635   2636     1  0.0000000  0.6508444  3
   2625   2623   2635   2637     1  0.0000000  0.6508444  3
   2627   2626   2632   5420     1  0.0000000  1.0460000  1
   2627   2626   2632   5420     1  0.0000000  0.0000000  3
   2627   2626   2632   2633     1  0.0000000  0.6508444  3
   2627   2626   2632   2634     1  0.0000000  0.6508444  3
   2628   2626   2632   5420     1  0.0000000  1.0460000  1
   2628   2626   2632   5420     1  0.0000000  0.0000000  3
   2628   2626   2632   2633     1  0.0000000  0.6508444  3
   2628   2626   2632   2634     1  0.0000000  0.6508444  3
   2632   5420   5390   5391     1  0.0000000  1.6038667  3
   2632   5420   5390   5392     1  0.0000000  1.6038667  3
   2633   2632   5420   5390     1  0.0000000  1.6038667  3
   2634   2632   5420   5390     1  0.0000000  1.6038667  3
   2635   5451   5421   5422     1  0.0000000  1.6038667  3
   2635   5451   5421   5423     1  0.0000000  1.6038667  3
   2636   2635   5451   5421     1  0.0000000  1.6038667  3
   2637   2635   5451   5421     1  0.0000000  1.6038667  3
   2639   2640   2652   2653     1  0.0000000  0.6508444  3
   2639   2640   2652   2654     1  0.0000000  0.6508444  3
   2639   2643   2655   2656     1  0.0000000  0.6508444  3
   2639   2643   2655   2657     1  0.0000000  0.6508444  3
   2639   2646   2649   2650     1  0.0000000  0.6508444  3
   2639   2646   2649   2651     1  0.0000000  0.6508444  3
   2640   2639   2643   2644     1  0.0000000  1.2552000  3
   2640   2639   2643   2645     1  0.0000000  1.2552000  3
   2640   2639   2646   2647     1  0.0000000  1.2552000  3
   2640   2639   2646   2648     1  0.0000000  1.2552000  3
   2640   2652   2664   2665     1  0.0000000  0.6508444  3
   2640   2652   2664   2666     1  0.0000000  0.6508444  3
   2641   2640   2639   2643     1  0.0000000  1.2552000  3
   2641   2640   2639   2646     1  0.0000000  1.2552000  3
   2641   2640   2652   2664     1  0.0000000  0.6508444  3
   2641   2640   2652   2653     1  0.0000000  0.6508444  3
   2641   2640   2652   2654     1  0.0000000  0.6508444  3
   2642   2640   2639   2643     1  0.0000000  1.2552000  3
   2642   2640   2639   2646     1  0.0000000  1.2552000  3
   2642   2640   2652   2664     1  0.0000000  0.6508444  3
   2642   2640   2652   2653     1  0.0000000  0.6508444  3
   2642   2640   2652   2654     1  0.0000000  0.6508444  3
   2643   2639   2646   2647     1  0.0000000  1.2552000  3
   2643   2639   2646   2648     1  0.0000000  1.2552000  3
   2643   2655   2661   2662     1  0.0000000  0.6508444  3
   2643   2655   2661   2663     1  0.0000000  0.6508444  3
   2644   2643   2639   2646     1  0.0000000  1.2552000  3
   2644   2643   2655   2661     1  0.0000000  0.6508444  3
   2644   2643   2655   2656     1  0.0000000  0.6508444  3
   2644   2643   2655   2657     1  0.0000000  0.6508444  3
   2645   2643   2639   2646     1  0.0000000  1.2552000  3
   2645   2643   2655   2661     1  0.0000000  0.6508444  3
   2645   2643   2655   2656     1  0.0000000  0.6508444  3
   2645   2643   2655   2657     1  0.0000000  0.6508444  3
   2646   2649   2658   2659     1  0.0000000  0.6508444  3
   2646   2649   2658   2660     1  0.0000000  0.6508444  3
   2647   2646   2649   2658     1  0.0000000  0.6508444  3
   2647   2646   2649   2650     1  0.0000000  0.6508444  3
   2647   2646   2649   2651     1  0.0000000  0.6508444  3
   2648   2646   2649   2658     1  0.0000000  0.6508444  3
   2648   2646   2649   2650     1  0.0000000  0.6508444  3
   2648   2646   2649   2651     1  0.0000000  0.6508444  3
   2650   2649   2658   2667     1  0.0000000  1.0460000  1
   2650   2649   2658   2667     1  0.0000000  0.0000000  3
   2650   2649   2658   2659     1  0.0000000  0.6508444  3
   2650   2649   2658   2660     1  0.0000000  0.6508444  3
   2651   2649   2658   2667     1  0.0000000  1.0460000  1
   2651   2649   2658   2667     1  0.0000000  0.0000000  3
   2651   2649   2658   2659     1  0.0000000  0.6508444  3
   2651   2649   2658   2660     1  0.0000000  0.6508444  3
   2653   2652   2664   5513     1  0.0000000  1.0460000  1
   2653   2652   2664   5513     1  0.0000000  0.0000000  3
   2653   2652   2664   2665     1  0.0000000  0.6508444  3
   2653   2652   2664   2666     1  0.0000000  0.6508444  3
   2654   2652   2664   5513     1  0.0000000  1.0460000  1
   2654   2652   2664   5513     1  0.0000000  0.0000000  3
   2654   2652   2664   2665     1  0.0000000  0.6508444  3
   2654   2652   2664   2666     1  0.0000000  0.6508444  3
   2656   2655   2661   5482     1  0.0000000  1.0460000  1
   2656   2655   2661   5482     1  0.0000000  0.0000000  3
   2656   2655   2661   2662     1  0.0000000  0.6508444  3
   2656   2655   2661   2663     1  0.0000000  0.6508444  3
   2657   2655   2661   5482     1  0.0000000  1.0460000  1
   2657   2655   2661   5482     1  0.0000000  0.0000000  3
   2657   2655   2661   2662     1  0.0000000  0.6508444  3
   2657   2655   2661   2663     1  0.0000000  0.6508444  3
   2661   5482   5452   5453     1  0.0000000  1.6038667  3
   2661   5482   5452   5454     1  0.0000000  1.6038667  3
   2662   2661   5482   5452     1  0.0000000  1.6038667  3
   2663   2661   5482   5452     1  0.0000000  1.6038667  3
   2664   5513   5483   5484     1  0.0000000  1.6038667  3
   2664   5513   5483   5485     1  0.0000000  1.6038667  3
   2665   2664   5513   5483     1  0.0000000  1.6038667  3
   2666   2664   5513   5483     1  0.0000000  1.6038667  3
   2668   2669   2681   2682     1  0.0000000  0.6508444  3
   2668   2669   2681   2683     1  0.0000000  0.6508444  3
   2668   2672   2684   2685     1  0.0000000  0.6508444  3
   2668   2672   2684   2686     1  0.0000000  0.6508444  3
   2668   2675   2678   2679     1  0.0000000  0.6508444  3
   2668   2675   2678   2680     1  0.0000000  0.6508444  3
   2669   2668   2672   2673     1  0.0000000  1.2552000  3
   2669   2668   2672   2674     1  0.0000000  1.2552000  3
   2669   2668   2675   2676     1  0.0000000  1.2552000  3
   2669   2668   2675   2677     1  0.0000000  1.2552000  3
   2669   2681   2693   2694     1  0.0000000  0.6508444  3
   2669   2681   2693   2695     1  0.0000000  0.6508444  3
   2670   2669   2668   2672     1  0.0000000  1.2552000  3
   2670   2669   2668   2675     1  0.0000000  1.2552000  3
   2670   2669   2681   2693     1  0.0000000  0.6508444  3
   2670   2669   2681   2682     1  0.0000000  0.6508444  3
   2670   2669   2681   2683     1  0.0000000  0.6508444  3
   2671   2669   2668   2672     1  0.0000000  1.2552000  3
   2671   2669   2668   2675     1  0.0000000  1.2552000  3
   2671   2669   2681   2693     1  0.0000000  0.6508444  3
   2671   2669   2681   2682     1  0.0000000  0.6508444  3
   2671   2669   2681   2683     1  0.0000000  0.6508444  3
   2672   2668   2675   2676     1  0.0000000  1.2552000  3
   2672   2668   2675   2677     1  0.0000000  1.2552000  3
   2672   2684   2690   2691     1  0.0000000  0.6508444  3
   2672   2684   2690   2692     1  0.0000000  0.6508444  3
   2673   2672   2668   2675     1  0.0000000  1.2552000  3
   2673   2672   2684   2690     1  0.0000000  0.6508444  3
   2673   2672   2684   2685     1  0.0000000  0.6508444  3
   2673   2672   2684   2686     1  0.0000000  0.6508444  3
   2674   2672   2668   2675     1  0.0000000  1.2552000  3
   2674   2672   2684   2690     1  0.0000000  0.6508444  3
   2674   2672   2684   2685     1  0.0000000  0.6508444  3
   2674   2672   2684   2686     1  0.0000000  0.6508444  3
   2675   2678   2687   2688     1  0.0000000  0.6508444  3
   2675   2678   2687   2689     1  0.0000000  0.6508444  3
   2676   2675   2678   2687     1  0.0000000  0.6508444  3
   2676   2675   2678   2679     1  0.0000000  0.6508444  3
   2676   2675   2678   2680     1  0.0000000  0.6508444  3
   2677   2675   2678   2687     1  0.0000000  0.6508444  3
   2677   2675   2678   2679     1  0.0000000  0.6508444  3
   2677   2675   2678   2680     1  0.0000000  0.6508444  3
   2679   2678   2687   2696     1  0.0000000  1.0460000  1
   2679   2678   2687   2696     1  0.0000000  0.0000000  3
   2679   2678   2687   2688     1  0.0000000  0.6508444  3
   2679   2678   2687   2689     1  0.0000000  0.6508444  3
   2680   2678   2687   2696     1  0.0000000  1.0460000  1
   2680   2678   2687   2696     1  0.0000000  0.0000000  3
   2680   2678   2687   2688     1  0.0000000  0.6508444  3
   2680   2678   2687   2689     1  0.0000000  0.6508444  3
   2682   2681   2693   5575     1  0.0000000  1.0460000  1
   2682   2681   2693   5575     1  0.0000000  0.0000000  3
   2682   2681   2693   2694     1  0.0000000  0.6508444  3
   2682   2681   2693   2695     1  0.0000000  0.6508444  3
   2683   2681   2693   5575     1  0.0000000  1.0460000  1
   2683   2681   2693   5575     1  0.0000000  0.0000000  3
   2683   2681   2693   2694     1  0.0000000  0.6508444  3
   2683   2681   2693   2695     1  0.0000000  0.6508444  3
   2685   2684   2690   5544     1  0.0000000  1.0460000  1
   2685   2684   2690   5544     1  0.0000000  0.0000000  3
   2685   2684   2690   2691     1  0.0000000  0.6508444  3
   2685   2684   2690   2692     1  0.0000000  0.6508444  3
   2686   2684   2690   5544     1  0.0000000  1.0460000  1
   2686   2684   2690   5544     1  0.0000000  0.0000000  3
   2686   2684   2690   2691     1  0.0000000  0.6508444  3
   2686   2684   2690   2692     1  0.0000000  0.6508444  3
   2690   5544   5514   5515     1  0.0000000  1.6038667  3
   2690   5544   5514   5516     1  0.0000000  1.6038667  3
   2691   2690   5544   5514     1  0.0000000  1.6038667  3
   2692   2690   5544   5514     1  0.0000000  1.6038667  3
   2693   5575   5545   5546     1  0.0000000  1.6038667  3
   2693   5575   5545   5547     1  0.0000000  1.6038667  3
   2694   2693   5575   5545     1  0.0000000  1.6038667  3
   2695   2693   5575   5545     1  0.0000000  1.6038667  3
   2697   2698   2710   2711     1  0.0000000  0.6508444  3
   2697   2698   2710   2712     1  0.0000000  0.6508444  3
   2697   2701   2713   2714     1  0.0000000  0.6508444  3
   2697   2701   2713   2715     1  0.0000000  0.6508444  3
   2697   2704   2707   2708     1  0.0000000  0.6508444  3
   2697   2704   2707   2709     1  0.0000000  0.6508444  3
   2698   2697   2701   2702     1  0.0000000  1.2552000  3
   2698   2697   2701   2703     1  0.0000000  1.2552000  3
   2698   2697   2704   2705     1  0.0000000  1.2552000  3
   2698   2697   2704   2706     1  0.0000000  1.2552000  3
   2698   2710   2722   2723     1  0.0000000  0.6508444  3
   2698   2710   2722   2724     1  0.0000000  0.6508444  3
   2699   2698   2697   2701     1  0.0000000  1.2552000  3
   2699   2698   2697   2704     1  0.0000000  1.2552000  3
   2699   2698   2710   2722     1  0.0000000  0.6508444  3
   2699   2698   2710   2711     1  0.0000000  0.6508444  3
   2699   2698   2710   2712     1  0.0000000  0.6508444  3
   2700   2698   2697   2701     1  0.0000000  1.2552000  3
   2700   2698   2697   2704     1  0.0000000  1.2552000  3
   2700   2698   2710   2722     1  0.0000000  0.6508444  3
   2700   2698   2710   2711     1  0.0000000  0.6508444  3
   2700   2698   2710   2712     1  0.0000000  0.6508444  3
   2701   2697   2704   2705     1  0.0000000  1.2552000  3
   2701   2697   2704   2706     1  0.0000000  1.2552000  3
   2701   2713   2719   2720     1  0.0000000  0.6508444  3
   2701   2713   2719   2721     1  0.0000000  0.6508444  3
   2702   2701   2697   2704     1  0.0000000  1.2552000  3
   2702   2701   2713   2719     1  0.0000000  0.6508444  3
   2702   2701   2713   2714     1  0.0000000  0.6508444  3
   2702   2701   2713   2715     1  0.0000000  0.6508444  3
   2703   2701   2697   2704     1  0.0000000  1.2552000  3
   2703   2701   2713   2719     1  0.0000000  0.6508444  3
   2703   2701   2713   2714     1  0.0000000  0.6508444  3
   2703   2701   2713   2715     1  0.0000000  0.6508444  3
   2704   2707   2716   2717     1  0.0000000  0.6508444  3
   2704   2707   2716   2718     1  0.0000000  0.6508444  3
   2705   2704   2707   2716     1  0.0000000  0.6508444  3
   2705   2704   2707   2708     1  0.0000000  0.6508444  3
   2705   2704   2707   2709     1  0.0000000  0.6508444  3
   2706   2704   2707   2716     1  0.0000000  0.6508444  3
   2706   2704   2707   2708     1  0.0000000  0.6508444  3
   2706   2704   2707   2709     1  0.0000000  0.6508444  3
   2708   2707   2716   2725     1  0.0000000  1.0460000  1
   2708   2707   2716   2725     1  0.0000000  0.0000000  3
   2708   2707   2716   2717     1  0.0000000  0.6508444  3
   2708   2707   2716   2718     1  0.0000000  0.6508444  3
   2709   2707   2716   2725     1  0.0000000  1.0460000  1
   2709   2707   2716   2725     1  0.0000000  0.0000000  3
   2709   2707   2716   2717     1  0.0000000  0.6508444  3
   2709   2707   2716   2718     1  0.0000000  0.6508444  3
   2711   2710   2722   5637     1  0.0000000  1.0460000  1
   2711   2710   2722   5637     1  0.0000000  0.0000000  3
   2711   2710   2722   2723     1  0.0000000  0.6508444  3
   2711   2710   2722   2724     1  0.0000000  0.6508444  3
   2712   2710   2722   5637     1  0.0000000  1.0460000  1
   2712   2710   2722   5637     1  0.0000000  0.0000000  3
   2712   2710   2722   2723     1  0.0000000  0.6508444  3
   2712   2710   2722   2724     1  0.0000000  0.6508444  3
   2714   2713   2719   5606     1  0.0000000  1.0460000  1
   2714   2713   2719   5606     1  0.0000000  0.0000000  3
   2714   2713   2719   2720     1  0.0000000  0.6508444  3
   2714   2713   2719   2721     1  0.0000000  0.6508444  3
   2715   2713   2719   5606     1  0.0000000  1.0460000  1
   2715   2713   2719   5606     1  0.0000000  0.0000000  3
   2715   2713   2719   2720     1  0.0000000  0.6508444  3
   2715   2713   2719   2721     1  0.0000000  0.6508444  3
   2719   5606   5576   5577     1  0.0000000  1.6038667  3
   2719   5606   5576   5578     1  0.0000000  1.6038667  3
   2720   2719   5606   5576     1  0.0000000  1.6038667  3
   2721   2719   5606   5576     1  0.0000000  1.6038667  3
   2722   5637   5607   5608     1  0.0000000  1.6038667  3
   2722   5637   5607   5609     1  0.0000000  1.6038667  3
   2723   2722   5637   5607     1  0.0000000  1.6038667  3
   2724   2722   5637   5607     1  0.0000000  1.6038667  3
   2726   2727   2739   2740     1  0.0000000  0.6508444  3
   2726   2727   2739   2741     1  0.0000000  0.6508444  3
   2726   2730   2742   2743     1  0.0000000  0.6508444  3
   2726   2730   2742   2744     1  0.0000000  0.6508444  3
   2726   2733   2736   2737     1  0.0000000  0.6508444  3
   2726   2733   2736   2738     1  0.0000000  0.6508444  3
   2727   2726   2730   2731     1  0.0000000  1.2552000  3
   2727   2726   2730   2732     1  0.0000000  1.2552000  3
   2727   2726   2733   2734     1  0.0000000  1.2552000  3
   2727   2726   2733   2735     1  0.0000000  1.2552000  3
   2727   2739   2751   2752     1  0.0000000  0.6508444  3
   2727   2739   2751   2753     1  0.0000000  0.6508444  3
   2728   2727   2726   2730     1  0.0000000  1.2552000  3
   2728   2727   2726   2733     1  0.0000000  1.2552000  3
   2728   2727   2739   2751     1  0.0000000  0.6508444  3
   2728   2727   2739   2740     1  0.0000000  0.6508444  3
   2728   2727   2739   2741     1  0.0000000  0.6508444  3
   2729   2727   2726   2730     1  0.0000000  1.2552000  3
   2729   2727   2726   2733     1  0.0000000  1.2552000  3
   2729   2727   2739   2751     1  0.0000000  0.6508444  3
   2729   2727   2739   2740     1  0.0000000  0.6508444  3
   2729   2727   2739   2741     1  0.0000000  0.6508444  3
   2730   2726   2733   2734     1  0.0000000  1.2552000  3
   2730   2726   2733   2735     1  0.0000000  1.2552000  3
   2730   2742   2748   2749     1  0.0000000  0.6508444  3
   2730   2742   2748   2750     1  0.0000000  0.6508444  3
   2731   2730   2726   2733     1  0.0000000  1.2552000  3
   2731   2730   2742   2748     1  0.0000000  0.6508444  3
   2731   2730   2742   2743     1  0.0000000  0.6508444  3
   2731   2730   2742   2744     1  0.0000000  0.6508444  3
   2732   2730   2726   2733     1  0.0000000  1.2552000  3
   2732   2730   2742   2748     1  0.0000000  0.6508444  3
   2732   2730   2742   2743     1  0.0000000  0.6508444  3
   2732   2730   2742   2744     1  0.0000000  0.6508444  3
   2733   2736   2745   2746     1  0.0000000  0.6508444  3
   2733   2736   2745   2747     1  0.0000000  0.6508444  3
   2734   2733   2736   2745     1  0.0000000  0.6508444  3
   2734   2733   2736   2737     1  0.0000000  0.6508444  3
   2734   2733   2736   2738     1  0.0000000  0.6508444  3
   2735   2733   2736   2745     1  0.0000000  0.6508444  3
   2735   2733   2736   2737     1  0.0000000  0.6508444  3
   2735   2733   2736   2738     1  0.0000000  0.6508444  3
   2737   2736   2745   2754     1  0.0000000  1.0460000  1
   2737   2736   2745   2754     1  0.0000000  0.0000000  3
   2737   2736   2745   2746     1  0.0000000  0.6508444  3
   2737   2736   2745   2747     1  0.0000000  0.6508444  3
   2738   2736   2745   2754     1  0.0000000  1.0460000  1
   2738   2736   2745   2754     1  0.0000000  0.0000000  3
   2738   2736   2745   2746     1  0.0000000  0.6508444  3
   2738   2736   2745   2747     1  0.0000000  0.6508444  3
   2740   2739   2751   5699     1  0.0000000  1.0460000  1
   2740   2739   2751   5699     1  0.0000000  0.0000000  3
   2740   2739   2751   2752     1  0.0000000  0.6508444  3
   2740   2739   2751   2753     1  0.0000000  0.6508444  3
   2741   2739   2751   5699     1  0.0000000  1.0460000  1
   2741   2739   2751   5699     1  0.0000000  0.0000000  3
   2741   2739   2751   2752     1  0.0000000  0.6508444  3
   2741   2739   2751   2753     1  0.0000000  0.6508444  3
   2743   2742   2748   5668     1  0.0000000  1.0460000  1
   2743   2742   2748   5668     1  0.0000000  0.0000000  3
   2743   2742   2748   2749     1  0.0000000  0.6508444  3
   2743   2742   2748   2750     1  0.0000000  0.6508444  3
   2744   2742   2748   5668     1  0.0000000  1.0460000  1
   2744   2742   2748   5668     1  0.0000000  0.0000000  3
   2744   2742   2748   2749     1  0.0000000  0.6508444  3
   2744   2742   2748   2750     1  0.0000000  0.6508444  3
   2748   5668   5638   5639     1  0.0000000  1.6038667  3
   2748   5668   5638   5640     1  0.0000000  1.6038667  3
   2749   2748   5668   5638     1  0.0000000  1.6038667  3
   2750   2748   5668   5638     1  0.0000000  1.6038667  3
   2751   5699   5669   5670     1  0.0000000  1.6038667  3
   2751   5699   5669   5671     1  0.0000000  1.6038667  3
   2752   2751   5699   5669     1  0.0000000  1.6038667  3
   2753   2751   5699   5669     1  0.0000000  1.6038667  3
   2755   2756   2768   2769     1  0.0000000  0.6508444  3
   2755   2756   2768   2770     1  0.0000000  0.6508444  3
   2755   2759   2771   2772     1  0.0000000  0.6508444  3
   2755   2759   2771   2773     1  0.0000000  0.6508444  3
   2755   2762   2765   2766     1  0.0000000  0.6508444  3
   2755   2762   2765   2767     1  0.0000000  0.6508444  3
   2756   2755   2759   2760     1  0.0000000  1.2552000  3
   2756   2755   2759   2761     1  0.0000000  1.2552000  3
   2756   2755   2762   2763     1  0.0000000  1.2552000  3
   2756   2755   2762   2764     1  0.0000000  1.2552000  3
   2756   2768   2780   2781     1  0.0000000  0.6508444  3
   2756   2768   2780   2782     1  0.0000000  0.6508444  3
   2757   2756   2755   2759     1  0.0000000  1.2552000  3
   2757   2756   2755   2762     1  0.0000000  1.2552000  3
   2757   2756   2768   2780     1  0.0000000  0.6508444  3
   2757   2756   2768   2769     1  0.0000000  0.6508444  3
   2757   2756   2768   2770     1  0.0000000  0.6508444  3
   2758   2756   2755   2759     1  0.0000000  1.2552000  3
   2758   2756   2755   2762     1  0.0000000  1.2552000  3
   2758   2756   2768   2780     1  0.0000000  0.6508444  3
   2758   2756   2768   2769     1  0.0000000  0.6508444  3
   2758   2756   2768   2770     1  0.0000000  0.6508444  3
   2759   2755   2762   2763     1  0.0000000  1.2552000  3
   2759   2755   2762   2764     1  0.0000000  1.2552000  3
   2759   2771   2777   2778     1  0.0000000  0.6508444  3
   2759   2771   2777   2779     1  0.0000000  0.6508444  3
   2760   2759   2755   2762     1  0.0000000  1.2552000  3
   2760   2759   2771   2777     1  0.0000000  0.6508444  3
   2760   2759   2771   2772     1  0.0000000  0.6508444  3
   2760   2759   2771   2773     1  0.0000000  0.6508444  3
   2761   2759   2755   2762     1  0.0000000  1.2552000  3
   2761   2759   2771   2777     1  0.0000000  0.6508444  3
   2761   2759   2771   2772     1  0.0000000  0.6508444  3
   2761   2759   2771   2773     1  0.0000000  0.6508444  3
   2762   2765   2774   2775     1  0.0000000  0.6508444  3
   2762   2765   2774   2776     1  0.0000000  0.6508444  3
   2763   2762   2765   2774     1  0.0000000  0.6508444  3
   2763   2762   2765   2766     1  0.0000000  0.6508444  3
   2763   2762   2765   2767     1  0.0000000  0.6508444  3
   2764   2762   2765   2774     1  0.0000000  0.6508444  3
   2764   2762   2765   2766     1  0.0000000  0.6508444  3
   2764   2762   2765   2767     1  0.0000000  0.6508444  3
   2766   2765   2774   2783     1  0.0000000  1.0460000  1
   2766   2765   2774   2783     1  0.0000000  0.0000000  3
   2766   2765   2774   2775     1  0.0000000  0.6508444  3
   2766   2765   2774   2776     1  0.0000000  0.6508444  3
   2767   2765   2774   2783     1  0.0000000  1.0460000  1
   2767   2765   2774   2783     1  0.0000000  0.0000000  3
   2767   2765   2774   2775     1  0.0000000  0.6508444  3
   2767   2765   2774   2776     1  0.0000000  0.6508444  3
   2769   2768   2780   5761     1  0.0000000  1.0460000  1
   2769   2768   2780   5761     1  0.0000000  0.0000000  3
   2769   2768   2780   2781     1  0.0000000  0.6508444  3
   2769   2768   2780   2782     1  0.0000000  0.6508444  3
   2770   2768   2780   5761     1  0.0000000  1.0460000  1
   2770   2768   2780   5761     1  0.0000000  0.0000000  3
   2770   2768   2780   2781     1  0.0000000  0.6508444  3
   2770   2768   2780   2782     1  0.0000000  0.6508444  3
   2772   2771   2777   5730     1  0.0000000  1.0460000  1
   2772   2771   2777   5730     1  0.0000000  0.0000000  3
   2772   2771   2777   2778     1  0.0000000  0.6508444  3
   2772   2771   2777   2779     1  0.0000000  0.6508444  3
   2773   2771   2777   5730     1  0.0000000  1.0460000  1
   2773   2771   2777   5730     1  0.0000000  0.0000000  3
   2773   2771   2777   2778     1  0.0000000  0.6508444  3
   2773   2771   2777   2779     1  0.0000000  0.6508444  3
   2777   5730   5700   5701     1  0.0000000  1.6038667  3
   2777   5730   5700   5702     1  0.0000000  1.6038667  3
   2778   2777   5730   5700     1  0.0000000  1.6038667  3
   2779   2777   5730   5700     1  0.0000000  1.6038667  3
   2780   5761   5731   5732     1  0.0000000  1.6038667  3
   2780   5761   5731   5733     1  0.0000000  1.6038667  3
   2781   2780   5761   5731     1  0.0000000  1.6038667  3
   2782   2780   5761   5731     1  0.0000000  1.6038667  3
   2784   2785   2797   2798     1  0.0000000  0.6508444  3
   2784   2785   2797   2799     1  0.0000000  0.6508444  3
   2784   2788   2800   2801     1  0.0000000  0.6508444  3
   2784   2788   2800   2802     1  0.0000000  0.6508444  3
   2784   2791   2794   2795     1  0.0000000  0.6508444  3
   2784   2791   2794   2796     1  0.0000000  0.6508444  3
   2785   2784   2788   2789     1  0.0000000  1.2552000  3
   2785   2784   2788   2790     1  0.0000000  1.2552000  3
   2785   2784   2791   2792     1  0.0000000  1.2552000  3
   2785   2784   2791   2793     1  0.0000000  1.2552000  3
   2785   2797   2809   2810     1  0.0000000  0.6508444  3
   2785   2797   2809   2811     1  0.0000000  0.6508444  3
   2786   2785   2784   2788     1  0.0000000  1.2552000  3
   2786   2785   2784   2791     1  0.0000000  1.2552000  3
   2786   2785   2797   2809     1  0.0000000  0.6508444  3
   2786   2785   2797   2798     1  0.0000000  0.6508444  3
   2786   2785   2797   2799     1  0.0000000  0.6508444  3
   2787   2785   2784   2788     1  0.0000000  1.2552000  3
   2787   2785   2784   2791     1  0.0000000  1.2552000  3
   2787   2785   2797   2809     1  0.0000000  0.6508444  3
   2787   2785   2797   2798     1  0.0000000  0.6508444  3
   2787   2785   2797   2799     1  0.0000000  0.6508444  3
   2788   2784   2791   2792     1  0.0000000  1.2552000  3
   2788   2784   2791   2793     1  0.0000000  1.2552000  3
   2788   2800   2806   2807     1  0.0000000  0.6508444  3
   2788   2800   2806   2808     1  0.0000000  0.6508444  3
   2789   2788   2784   2791     1  0.0000000  1.2552000  3
   2789   2788   2800   2806     1  0.0000000  0.6508444  3
   2789   2788   2800   2801     1  0.0000000  0.6508444  3
   2789   2788   2800   2802     1  0.0000000  0.6508444  3
   2790   2788   2784   2791     1  0.0000000  1.2552000  3
   2790   2788   2800   2806     1  0.0000000  0.6508444  3
   2790   2788   2800   2801     1  0.0000000  0.6508444  3
   2790   2788   2800   2802     1  0.0000000  0.6508444  3
   2791   2794   2803   2804     1  0.0000000  0.6508444  3
   2791   2794   2803   2805     1  0.0000000  0.6508444  3
   2792   2791   2794   2803     1  0.0000000  0.6508444  3
   2792   2791   2794   2795     1  0.0000000  0.6508444  3
   2792   2791   2794   2796     1  0.0000000  0.6508444  3
   2793   2791   2794   2803     1  0.0000000  0.6508444  3
   2793   2791   2794   2795     1  0.0000000  0.6508444  3
   2793   2791   2794   2796     1  0.0000000  0.6508444  3
   2795   2794   2803   2812     1  0.0000000  1.0460000  1
   2795   2794   2803   2812     1  0.0000000  0.0000000  3
   2795   2794   2803   2804     1  0.0000000  0.6508444  3
   2795   2794   2803   2805     1  0.0000000  0.6508444  3
   2796   2794   2803   2812     1  0.0000000  1.0460000  1
   2796   2794   2803   2812     1  0.0000000  0.0000000  3
   2796   2794   2803   2804     1  0.0000000  0.6508444  3
   2796   2794   2803   2805     1  0.0000000  0.6508444  3
   2798   2797   2809   5823     1  0.0000000  1.0460000  1
   2798   2797   2809   5823     1  0.0000000  0.0000000  3
   2798   2797   2809   2810     1  0.0000000  0.6508444  3
   2798   2797   2809   2811     1  0.0000000  0.6508444  3
   2799   2797   2809   5823     1  0.0000000  1.0460000  1
   2799   2797   2809   5823     1  0.0000000  0.0000000  3
   2799   2797   2809   2810     1  0.0000000  0.6508444  3
   2799   2797   2809   2811     1  0.0000000  0.6508444  3
   2801   2800   2806   5792     1  0.0000000  1.0460000  1
   2801   2800   2806   5792     1  0.0000000  0.0000000  3
   2801   2800   2806   2807     1  0.0000000  0.6508444  3
   2801   2800   2806   2808     1  0.0000000  0.6508444  3
   2802   2800   2806   5792     1  0.0000000  1.0460000  1
   2802   2800   2806   5792     1  0.0000000  0.0000000  3
   2802   2800   2806   2807     1  0.0000000  0.6508444  3
   2802   2800   2806   2808     1  0.0000000  0.6508444  3
   2806   5792   5762   5763     1  0.0000000  1.6038667  3
   2806   5792   5762   5764     1  0.0000000  1.6038667  3
   2807   2806   5792   5762     1  0.0000000  1.6038667  3
   2808   2806   5792   5762     1  0.0000000  1.6038667  3
   2809   5823   5793   5794     1  0.0000000  1.6038667  3
   2809   5823   5793   5795     1  0.0000000  1.6038667  3
   2810   2809   5823   5793     1  0.0000000  1.6038667  3
   2811   2809   5823   5793     1  0.0000000  1.6038667  3
   2813   2814   2826   2827     1  0.0000000  0.6508444  3
   2813   2814   2826   2828     1  0.0000000  0.6508444  3
   2813   2817   2829   2830     1  0.0000000  0.6508444  3
   2813   2817   2829   2831     1  0.0000000  0.6508444  3
   2813   2820   2823   2824     1  0.0000000  0.6508444  3
   2813   2820   2823   2825     1  0.0000000  0.6508444  3
   2814   2813   2817   2818     1  0.0000000  1.2552000  3
   2814   2813   2817   2819     1  0.0000000  1.2552000  3
   2814   2813   2820   2821     1  0.0000000  1.2552000  3
   2814   2813   2820   2822     1  0.0000000  1.2552000  3
   2814   2826   2838   2839     1  0.0000000  0.6508444  3
   2814   2826   2838   2840     1  0.0000000  0.6508444  3
   2815   2814   2813   2817     1  0.0000000  1.2552000  3
   2815   2814   2813   2820     1  0.0000000  1.2552000  3
   2815   2814   2826   2838     1  0.0000000  0.6508444  3
   2815   2814   2826   2827     1  0.0000000  0.6508444  3
   2815   2814   2826   2828     1  0.0000000  0.6508444  3
   2816   2814   2813   2817     1  0.0000000  1.2552000  3
   2816   2814   2813   2820     1  0.0000000  1.2552000  3
   2816   2814   2826   2838     1  0.0000000  0.6508444  3
   2816   2814   2826   2827     1  0.0000000  0.6508444  3
   2816   2814   2826   2828     1  0.0000000  0.6508444  3
   2817   2813   2820   2821     1  0.0000000  1.2552000  3
   2817   2813   2820   2822     1  0.0000000  1.2552000  3
   2817   2829   2835   2836     1  0.0000000  0.6508444  3
   2817   2829   2835   2837     1  0.0000000  0.6508444  3
   2818   2817   2813   2820     1  0.0000000  1.2552000  3
   2818   2817   2829   2835     1  0.0000000  0.6508444  3
   2818   2817   2829   2830     1  0.0000000  0.6508444  3
   2818   2817   2829   2831     1  0.0000000  0.6508444  3
   2819   2817   2813   2820     1  0.0000000  1.2552000  3
   2819   2817   2829   2835     1  0.0000000  0.6508444  3
   2819   2817   2829   2830     1  0.0000000  0.6508444  3
   2819   2817   2829   2831     1  0.0000000  0.6508444  3
   2820   2823   2832   2833     1  0.0000000  0.6508444  3
   2820   2823   2832   2834     1  0.0000000  0.6508444  3
   2821   2820   2823   2832     1  0.0000000  0.6508444  3
   2821   2820   2823   2824     1  0.0000000  0.6508444  3
   2821   2820   2823   2825     1  0.0000000  0.6508444  3
   2822   2820   2823   2832     1  0.0000000  0.6508444  3
   2822   2820   2823   2824     1  0.0000000  0.6508444  3
   2822   2820   2823   2825     1  0.0000000  0.6508444  3
   2824   2823   2832   2841     1  0.0000000  1.0460000  1
   2824   2823   2832   2841     1  0.0000000  0.0000000  3
   2824   2823   2832   2833     1  0.0000000  0.6508444  3
   2824   2823   2832   2834     1  0.0000000  0.6508444  3
   2825   2823   2832   2841     1  0.0000000  1.0460000  1
   2825   2823   2832   2841     1  0.0000000  0.0000000  3
   2825   2823   2832   2833     1  0.0000000  0.6508444  3
   2825   2823   2832   2834     1  0.0000000  0.6508444  3
   2827   2826   2838   5885     1  0.0000000  1.0460000  1
   2827   2826   2838   5885     1  0.0000000  0.0000000  3
   2827   2826   2838   2839     1  0.0000000  0.6508444  3
   2827   2826   2838   2840     1  0.0000000  0.6508444  3
   2828   2826   2838   5885     1  0.0000000  1.0460000  1
   2828   2826   2838   5885     1  0.0000000  0.0000000  3
   2828   2826   2838   2839     1  0.0000000  0.6508444  3
   2828   2826   2838   2840     1  0.0000000  0.6508444  3
   2830   2829   2835   5854     1  0.0000000  1.0460000  1
   2830   2829   2835   5854     1  0.0000000  0.0000000  3
   2830   2829   2835   2836     1  0.0000000  0.6508444  3
   2830   2829   2835   2837     1  0.0000000  0.6508444  3
   2831   2829   2835   5854     1  0.0000000  1.0460000  1
   2831   2829   2835   5854     1  0.0000000  0.0000000  3
   2831   2829   2835   2836     1  0.0000000  0.6508444  3
   2831   2829   2835   2837     1  0.0000000  0.6508444  3
   2835   5854   5824   5825     1  0.0000000  1.6038667  3
   2835   5854   5824   5826     1  0.0000000  1.6038667  3
   2836   2835   5854   5824     1  0.0000000  1.6038667  3
   2837   2835   5854   5824     1  0.0000000  1.6038667  3
   2838   5885   5855   5856     1  0.0000000  1.6038667  3
   2838   5885   5855   5857     1  0.0000000  1.6038667  3
   2839   2838   5885   5855     1  0.0000000  1.6038667  3
   2840   2838   5885   5855     1  0.0000000  1.6038667  3
   2842   2843   2855   2856     1  0.0000000  0.6508444  3
   2842   2843   2855   2857     1  0.0000000  0.6508444  3
   2842   2846   2858   2859     1  0.0000000  0.6508444  3
   2842   2846   2858   2860     1  0.0000000  0.6508444  3
   2842   2849   2852   2853     1  0.0000000  0.6508444  3
   2842   2849   2852   2854     1  0.0000000  0.6508444  3
   2843   2842   2846   2847     1  0.0000000  1.2552000  3
   2843   2842   2846   2848     1  0.0000000  1.2552000  3
   2843   2842   2849   2850     1  0.0000000  1.2552000  3
   2843   2842   2849   2851     1  0.0000000  1.2552000  3
   2843   2855   2867   2868     1  0.0000000  0.6508444  3
   2843   2855   2867   2869     1  0.0000000  0.6508444  3
   2844   2843   2842   2846     1  0.0000000  1.2552000  3
   2844   2843   2842   2849     1  0.0000000  1.2552000  3
   2844   2843   2855   2867     1  0.0000000  0.6508444  3
   2844   2843   2855   2856     1  0.0000000  0.6508444  3
   2844   2843   2855   2857     1  0.0000000  0.6508444  3
   2845   2843   2842   2846     1  0.0000000  1.2552000  3
   2845   2843   2842   2849     1  0.0000000  1.2552000  3
   2845   2843   2855   2867     1  0.0000000  0.6508444  3
   2845   2843   2855   2856     1  0.0000000  0.6508444  3
   2845   2843   2855   2857     1  0.0000000  0.6508444  3
   2846   2842   2849   2850     1  0.0000000  1.2552000  3
   2846   2842   2849   2851     1  0.0000000  1.2552000  3
   2846   2858   2864   2865     1  0.0000000  0.6508444  3
   2846   2858   2864   2866     1  0.0000000  0.6508444  3
   2847   2846   2842   2849     1  0.0000000  1.2552000  3
   2847   2846   2858   2864     1  0.0000000  0.6508444  3
   2847   2846   2858   2859     1  0.0000000  0.6508444  3
   2847   2846   2858   2860     1  0.0000000  0.6508444  3
   2848   2846   2842   2849     1  0.0000000  1.2552000  3
   2848   2846   2858   2864     1  0.0000000  0.6508444  3
   2848   2846   2858   2859     1  0.0000000  0.6508444  3
   2848   2846   2858   2860     1  0.0000000  0.6508444  3
   2849   2852   2861   2862     1  0.0000000  0.6508444  3
   2849   2852   2861   2863     1  0.0000000  0.6508444  3
   2850   2849   2852   2861     1  0.0000000  0.6508444  3
   2850   2849   2852   2853     1  0.0000000  0.6508444  3
   2850   2849   2852   2854     1  0.0000000  0.6508444  3
   2851   2849   2852   2861     1  0.0000000  0.6508444  3
   2851   2849   2852   2853     1  0.0000000  0.6508444  3
   2851   2849   2852   2854     1  0.0000000  0.6508444  3
   2853   2852   2861   2870     1  0.0000000  1.0460000  1
   2853   2852   2861   2870     1  0.0000000  0.0000000  3
   2853   2852   2861   2862     1  0.0000000  0.6508444  3
   2853   2852   2861   2863     1  0.0000000  0.6508444  3
   2854   2852   2861   2870     1  0.0000000  1.0460000  1
   2854   2852   2861   2870     1  0.0000000  0.0000000  3
   2854   2852   2861   2862     1  0.0000000  0.6508444  3
   2854   2852   2861   2863     1  0.0000000  0.6508444  3
   2856   2855   2867   5947     1  0.0000000  1.0460000  1
   2856   2855   2867   5947     1  0.0000000  0.0000000  3
   2856   2855   2867   2868     1  0.0000000  0.6508444  3
   2856   2855   2867   2869     1  0.0000000  0.6508444  3
   2857   2855   2867   5947     1  0.0000000  1.0460000  1
   2857   2855   2867   5947     1  0.0000000  0.0000000  3
   2857   2855   2867   2868     1  0.0000000  0.6508444  3
   2857   2855   2867   2869     1  0.0000000  0.6508444  3
   2859   2858   2864   5916     1  0.0000000  1.0460000  1
   2859   2858   2864   5916     1  0.0000000  0.0000000  3
   2859   2858   2864   2865     1  0.0000000  0.6508444  3
   2859   2858   2864   2866     1  0.0000000  0.6508444  3
   2860   2858   2864   5916     1  0.0000000  1.0460000  1
   2860   2858   2864   5916     1  0.0000000  0.0000000  3
   2860   2858   2864   2865     1  0.0000000  0.6508444  3
   2860   2858   2864   2866     1  0.0000000  0.6508444  3
   2864   5916   5886   5887     1  0.0000000  1.6038667  3
   2864   5916   5886   5888     1  0.0000000  1.6038667  3
   2865   2864   5916   5886     1  0.0000000  1.6038667  3
   2866   2864   5916   5886     1  0.0000000  1.6038667  3
   2867   5947   5917   5918     1  0.0000000  1.6038667  3
   2867   5947   5917   5919     1  0.0000000  1.6038667  3
   2868   2867   5947   5917     1  0.0000000  1.6038667  3
   2869   2867   5947   5917     1  0.0000000  1.6038667  3
   2871   2872   2884   2885     1  0.0000000  0.6508444  3
   2871   2872   2884   2886     1  0.0000000  0.6508444  3
   2871   2875   2887   2888     1  0.0000000  0.6508444  3
   2871   2875   2887   2889     1  0.0000000  0.6508444  3
   2871   2878   2881   2882     1  0.0000000  0.6508444  3
   2871   2878   2881   2883     1  0.0000000  0.6508444  3
   2872   2871   2875   2876     1  0.0000000  1.2552000  3
   2872   2871   2875   2877     1  0.0000000  1.2552000  3
   2872   2871   2878   2879     1  0.0000000  1.2552000  3
   2872   2871   2878   2880     1  0.0000000  1.2552000  3
   2872   2884   2896   2897     1  0.0000000  0.6508444  3
   2872   2884   2896   2898     1  0.0000000  0.6508444  3
   2873   2872   2871   2875     1  0.0000000  1.2552000  3
   2873   2872   2871   2878     1  0.0000000  1.2552000  3
   2873   2872   2884   2896     1  0.0000000  0.6508444  3
   2873   2872   2884   2885     1  0.0000000  0.6508444  3
   2873   2872   2884   2886     1  0.0000000  0.6508444  3
   2874   2872   2871   2875     1  0.0000000  1.2552000  3
   2874   2872   2871   2878     1  0.0000000  1.2552000  3
   2874   2872   2884   2896     1  0.0000000  0.6508444  3
   2874   2872   2884   2885     1  0.0000000  0.6508444  3
   2874   2872   2884   2886     1  0.0000000  0.6508444  3
   2875   2871   2878   2879     1  0.0000000  1.2552000  3
   2875   2871   2878   2880     1  0.0000000  1.2552000  3
   2875   2887   2893   2894     1  0.0000000  0.6508444  3
   2875   2887   2893   2895     1  0.0000000  0.6508444  3
   2876   2875   2871   2878     1  0.0000000  1.2552000  3
   2876   2875   2887   2893     1  0.0000000  0.6508444  3
   2876   2875   2887   2888     1  0.0000000  0.6508444  3
   2876   2875   2887   2889     1  0.0000000  0.6508444  3
   2877   2875   2871   2878     1  0.0000000  1.2552000  3
   2877   2875   2887   2893     1  0.0000000  0.6508444  3
   2877   2875   2887   2888     1  0.0000000  0.6508444  3
   2877   2875   2887   2889     1  0.0000000  0.6508444  3
   2878   2881   2890   2891     1  0.0000000  0.6508444  3
   2878   2881   2890   2892     1  0.0000000  0.6508444  3
   2879   2878   2881   2890     1  0.0000000  0.6508444  3
   2879   2878   2881   2882     1  0.0000000  0.6508444  3
   2879   2878   2881   2883     1  0.0000000  0.6508444  3
   2880   2878   2881   2890     1  0.0000000  0.6508444  3
   2880   2878   2881   2882     1  0.0000000  0.6508444  3
   2880   2878   2881   2883     1  0.0000000  0.6508444  3
   2882   2881   2890   2899     1  0.0000000  1.0460000  1
   2882   2881   2890   2899     1  0.0000000  0.0000000  3
   2882   2881   2890   2891     1  0.0000000  0.6508444  3
   2882   2881   2890   2892     1  0.0000000  0.6508444  3
   2883   2881   2890   2899     1  0.0000000  1.0460000  1
   2883   2881   2890   2899     1  0.0000000  0.0000000  3
   2883   2881   2890   2891     1  0.0000000  0.6508444  3
   2883   2881   2890   2892     1  0.0000000  0.6508444  3
   2885   2884   2896   6009     1  0.0000000  1.0460000  1
   2885   2884   2896   6009     1  0.0000000  0.0000000  3
   2885   2884   2896   2897     1  0.0000000  0.6508444  3
   2885   2884   2896   2898     1  0.0000000  0.6508444  3
   2886   2884   2896   6009     1  0.0000000  1.0460000  1
   2886   2884   2896   6009     1  0.0000000  0.0000000  3
   2886   2884   2896   2897     1  0.0000000  0.6508444  3
   2886   2884   2896   2898     1  0.0000000  0.6508444  3
   2888   2887   2893   5978     1  0.0000000  1.0460000  1
   2888   2887   2893   5978     1  0.0000000  0.0000000  3
   2888   2887   2893   2894     1  0.0000000  0.6508444  3
   2888   2887   2893   2895     1  0.0000000  0.6508444  3
   2889   2887   2893   5978     1  0.0000000  1.0460000  1
   2889   2887   2893   5978     1  0.0000000  0.0000000  3
   2889   2887   2893   2894     1  0.0000000  0.6508444  3
   2889   2887   2893   2895     1  0.0000000  0.6508444  3
   2893   5978   5948   5949     1  0.0000000  1.6038667  3
   2893   5978   5948   5950     1  0.0000000  1.6038667  3
   2894   2893   5978   5948     1  0.0000000  1.6038667  3
   2895   2893   5978   5948     1  0.0000000  1.6038667  3
   2896   6009   5979   5980     1  0.0000000  1.6038667  3
   2896   6009   5979   5981     1  0.0000000  1.6038667  3
   2897   2896   6009   5979     1  0.0000000  1.6038667  3
   2898   2896   6009   5979     1  0.0000000  1.6038667  3
   2900   2901   2913   2914     1  0.0000000  0.6508444  3
   2900   2901   2913   2915     1  0.0000000  0.6508444  3
   2900   2904   2916   2917     1  0.0000000  0.6508444  3
   2900   2904   2916   2918     1  0.0000000  0.6508444  3
   2900   2907   2910   2911     1  0.0000000  0.6508444  3
   2900   2907   2910   2912     1  0.0000000  0.6508444  3
   2901   2900   2904   2905     1  0.0000000  1.2552000  3
   2901   2900   2904   2906     1  0.0000000  1.2552000  3
   2901   2900   2907   2908     1  0.0000000  1.2552000  3
   2901   2900   2907   2909     1  0.0000000  1.2552000  3
   2901   2913   2925   2926     1  0.0000000  0.6508444  3
   2901   2913   2925   2927     1  0.0000000  0.6508444  3
   2902   2901   2900   2904     1  0.0000000  1.2552000  3
   2902   2901   2900   2907     1  0.0000000  1.2552000  3
   2902   2901   2913   2925     1  0.0000000  0.6508444  3
   2902   2901   2913   2914     1  0.0000000  0.6508444  3
   2902   2901   2913   2915     1  0.0000000  0.6508444  3
   2903   2901   2900   2904     1  0.0000000  1.2552000  3
   2903   2901   2900   2907     1  0.0000000  1.2552000  3
   2903   2901   2913   2925     1  0.0000000  0.6508444  3
   2903   2901   2913   2914     1  0.0000000  0.6508444  3
   2903   2901   2913   2915     1  0.0000000  0.6508444  3
   2904   2900   2907   2908     1  0.0000000  1.2552000  3
   2904   2900   2907   2909     1  0.0000000  1.2552000  3
   2904   2916   2922   2923     1  0.0000000  0.6508444  3
   2904   2916   2922   2924     1  0.0000000  0.6508444  3
   2905   2904   2900   2907     1  0.0000000  1.2552000  3
   2905   2904   2916   2922     1  0.0000000  0.6508444  3
   2905   2904   2916   2917     1  0.0000000  0.6508444  3
   2905   2904   2916   2918     1  0.0000000  0.6508444  3
   2906   2904   2900   2907     1  0.0000000  1.2552000  3
   2906   2904   2916   2922     1  0.0000000  0.6508444  3
   2906   2904   2916   2917     1  0.0000000  0.6508444  3
   2906   2904   2916   2918     1  0.0000000  0.6508444  3
   2907   2910   2919   2920     1  0.0000000  0.6508444  3
   2907   2910   2919   2921     1  0.0000000  0.6508444  3
   2908   2907   2910   2919     1  0.0000000  0.6508444  3
   2908   2907   2910   2911     1  0.0000000  0.6508444  3
   2908   2907   2910   2912     1  0.0000000  0.6508444  3
   2909   2907   2910   2919     1  0.0000000  0.6508444  3
   2909   2907   2910   2911     1  0.0000000  0.6508444  3
   2909   2907   2910   2912     1  0.0000000  0.6508444  3
   2911   2910   2919   2928     1  0.0000000  1.0460000  1
   2911   2910   2919   2928     1  0.0000000  0.0000000  3
   2911   2910   2919   2920     1  0.0000000  0.6508444  3
   2911   2910   2919   2921     1  0.0000000  0.6508444  3
   2912   2910   2919   2928     1  0.0000000  1.0460000  1
   2912   2910   2919   2928     1  0.0000000  0.0000000  3
   2912   2910   2919   2920     1  0.0000000  0.6508444  3
   2912   2910   2919   2921     1  0.0000000  0.6508444  3
   2914   2913   2925   6071     1  0.0000000  1.0460000  1
   2914   2913   2925   6071     1  0.0000000  0.0000000  3
   2914   2913   2925   2926     1  0.0000000  0.6508444  3
   2914   2913   2925   2927     1  0.0000000  0.6508444  3
   2915   2913   2925   6071     1  0.0000000  1.0460000  1
   2915   2913   2925   6071     1  0.0000000  0.0000000  3
   2915   2913   2925   2926     1  0.0000000  0.6508444  3
   2915   2913   2925   2927     1  0.0000000  0.6508444  3
   2917   2916   2922   6040     1  0.0000000  1.0460000  1
   2917   2916   2922   6040     1  0.0000000  0.0000000  3
   2917   2916   2922   2923     1  0.0000000  0.6508444  3
   2917   2916   2922   2924     1  0.0000000  0.6508444  3
   2918   2916   2922   6040     1  0.0000000  1.0460000  1
   2918   2916   2922   6040     1  0.0000000  0.0000000  3
   2918   2916   2922   2923     1  0.0000000  0.6508444  3
   2918   2916   2922   2924     1  0.0000000  0.6508444  3
   2922   6040   6010   6011     1  0.0000000  1.6038667  3
   2922   6040   6010   6012     1  0.0000000  1.6038667  3
   2923   2922   6040   6010     1  0.0000000  1.6038667  3
   2924   2922   6040   6010     1  0.0000000  1.6038667  3
   2925   6071   6041   6042     1  0.0000000  1.6038667  3
   2925   6071   6041   6043     1  0.0000000  1.6038667  3
   2926   2925   6071   6041     1  0.0000000  1.6038667  3
   2927   2925   6071   6041     1  0.0000000  1.6038667  3
   2929   2930   2942   2943     1  0.0000000  0.6508444  3
   2929   2930   2942   2944     1  0.0000000  0.6508444  3
   2929   2933   2945   2946     1  0.0000000  0.6508444  3
   2929   2933   2945   2947     1  0.0000000  0.6508444  3
   2929   2936   2939   2940     1  0.0000000  0.6508444  3
   2929   2936   2939   2941     1  0.0000000  0.6508444  3
   2930   2929   2933   2934     1  0.0000000  1.2552000  3
   2930   2929   2933   2935     1  0.0000000  1.2552000  3
   2930   2929   2936   2937     1  0.0000000  1.2552000  3
   2930   2929   2936   2938     1  0.0000000  1.2552000  3
   2930   2942   2954   2955     1  0.0000000  0.6508444  3
   2930   2942   2954   2956     1  0.0000000  0.6508444  3
   2931   2930   2929   2933     1  0.0000000  1.2552000  3
   2931   2930   2929   2936     1  0.0000000  1.2552000  3
   2931   2930   2942   2954     1  0.0000000  0.6508444  3
   2931   2930   2942   2943     1  0.0000000  0.6508444  3
   2931   2930   2942   2944     1  0.0000000  0.6508444  3
   2932   2930   2929   2933     1  0.0000000  1.2552000  3
   2932   2930   2929   2936     1  0.0000000  1.2552000  3
   2932   2930   2942   2954     1  0.0000000  0.6508444  3
   2932   2930   2942   2943     1  0.0000000  0.6508444  3
   2932   2930   2942   2944     1  0.0000000  0.6508444  3
   2933   2929   2936   2937     1  0.0000000  1.2552000  3
   2933   2929   2936   2938     1  0.0000000  1.2552000  3
   2933   2945   2951   2952     1  0.0000000  0.6508444  3
   2933   2945   2951   2953     1  0.0000000  0.6508444  3
   2934   2933   2929   2936     1  0.0000000  1.2552000  3
   2934   2933   2945   2951     1  0.0000000  0.6508444  3
   2934   2933   2945   2946     1  0.0000000  0.6508444  3
   2934   2933   2945   2947     1  0.0000000  0.6508444  3
   2935   2933   2929   2936     1  0.0000000  1.2552000  3
   2935   2933   2945   2951     1  0.0000000  0.6508444  3
   2935   2933   2945   2946     1  0.0000000  0.6508444  3
   2935   2933   2945   2947     1  0.0000000  0.6508444  3
   2936   2939   2948   2949     1  0.0000000  0.6508444  3
   2936   2939   2948   2950     1  0.0000000  0.6508444  3
   2937   2936   2939   2948     1  0.0000000  0.6508444  3
   2937   2936   2939   2940     1  0.0000000  0.6508444  3
   2937   2936   2939   2941     1  0.0000000  0.6508444  3
   2938   2936   2939   2948     1  0.0000000  0.6508444  3
   2938   2936   2939   2940     1  0.0000000  0.6508444  3
   2938   2936   2939   2941     1  0.0000000  0.6508444  3
   2940   2939   2948   2957     1  0.0000000  1.0460000  1
   2940   2939   2948   2957     1  0.0000000  0.0000000  3
   2940   2939   2948   2949     1  0.0000000  0.6508444  3
   2940   2939   2948   2950     1  0.0000000  0.6508444  3
   2941   2939   2948   2957     1  0.0000000  1.0460000  1
   2941   2939   2948   2957     1  0.0000000  0.0000000  3
   2941   2939   2948   2949     1  0.0000000  0.6508444  3
   2941   2939   2948   2950     1  0.0000000  0.6508444  3
   2943   2942   2954   6133     1  0.0000000  1.0460000  1
   2943   2942   2954   6133     1  0.0000000  0.0000000  3
   2943   2942   2954   2955     1  0.0000000  0.6508444  3
   2943   2942   2954   2956     1  0.0000000  0.6508444  3
   2944   2942   2954   6133     1  0.0000000  1.0460000  1
   2944   2942   2954   6133     1  0.0000000  0.0000000  3
   2944   2942   2954   2955     1  0.0000000  0.6508444  3
   2944   2942   2954   2956     1  0.0000000  0.6508444  3
   2946   2945   2951   6102     1  0.0000000  1.0460000  1
   2946   2945   2951   6102     1  0.0000000  0.0000000  3
   2946   2945   2951   2952     1  0.0000000  0.6508444  3
   2946   2945   2951   2953     1  0.0000000  0.6508444  3
   2947   2945   2951   6102     1  0.0000000  1.0460000  1
   2947   2945   2951   6102     1  0.0000000  0.0000000  3
   2947   2945   2951   2952     1  0.0000000  0.6508444  3
   2947   2945   2951   2953     1  0.0000000  0.6508444  3
   2951   6102   6072   6073     1  0.0000000  1.6038667  3
   2951   6102   6072   6074     1  0.0000000  1.6038667  3
   2952   2951   6102   6072     1  0.0000000  1.6038667  3
   2953   2951   6102   6072     1  0.0000000  1.6038667  3
   2954   6133   6103   6104     1  0.0000000  1.6038667  3
   2954   6133   6103   6105     1  0.0000000  1.6038667  3
   2955   2954   6133   6103     1  0.0000000  1.6038667  3
   2956   2954   6133   6103     1  0.0000000  1.6038667  3
   2958   2959   2971   2972     1  0.0000000  0.6508444  3
   2958   2959   2971   2973     1  0.0000000  0.6508444  3
   2958   2962   2974   2975     1  0.0000000  0.6508444  3
   2958   2962   2974   2976     1  0.0000000  0.6508444  3
   2958   2965   2968   2969     1  0.0000000  0.6508444  3
   2958   2965   2968   2970     1  0.0000000  0.6508444  3
   2959   2958   2962   2963     1  0.0000000  1.2552000  3
   2959   2958   2962   2964     1  0.0000000  1.2552000  3
   2959   2958   2965   2966     1  0.0000000  1.2552000  3
   2959   2958   2965   2967     1  0.0000000  1.2552000  3
   2959   2971   2983   2984     1  0.0000000  0.6508444  3
   2959   2971   2983   2985     1  0.0000000  0.6508444  3
   2960   2959   2958   2962     1  0.0000000  1.2552000  3
   2960   2959   2958   2965     1  0.0000000  1.2552000  3
   2960   2959   2971   2983     1  0.0000000  0.6508444  3
   2960   2959   2971   2972     1  0.0000000  0.6508444  3
   2960   2959   2971   2973     1  0.0000000  0.6508444  3
   2961   2959   2958   2962     1  0.0000000  1.2552000  3
   2961   2959   2958   2965     1  0.0000000  1.2552000  3
   2961   2959   2971   2983     1  0.0000000  0.6508444  3
   2961   2959   2971   2972     1  0.0000000  0.6508444  3
   2961   2959   2971   2973     1  0.0000000  0.6508444  3
   2962   2958   2965   2966     1  0.0000000  1.2552000  3
   2962   2958   2965   2967     1  0.0000000  1.2552000  3
   2962   2974   2980   2981     1  0.0000000  0.6508444  3
   2962   2974   2980   2982     1  0.0000000  0.6508444  3
   2963   2962   2958   2965     1  0.0000000  1.2552000  3
   2963   2962   2974   2980     1  0.0000000  0.6508444  3
   2963   2962   2974   2975     1  0.0000000  0.6508444  3
   2963   2962   2974   2976     1  0.0000000  0.6508444  3
   2964   2962   2958   2965     1  0.0000000  1.2552000  3
   2964   2962   2974   2980     1  0.0000000  0.6508444  3
   2964   2962   2974   2975     1  0.0000000  0.6508444  3
   2964   2962   2974   2976     1  0.0000000  0.6508444  3
   2965   2968   2977   2978     1  0.0000000  0.6508444  3
   2965   2968   2977   2979     1  0.0000000  0.6508444  3
   2966   2965   2968   2977     1  0.0000000  0.6508444  3
   2966   2965   2968   2969     1  0.0000000  0.6508444  3
   2966   2965   2968   2970     1  0.0000000  0.6508444  3
   2967   2965   2968   2977     1  0.0000000  0.6508444  3
   2967   2965   2968   2969     1  0.0000000  0.6508444  3
   2967   2965   2968   2970     1  0.0000000  0.6508444  3
   2969   2968   2977   2986     1  0.0000000  1.0460000  1
   2969   2968   2977   2986     1  0.0000000  0.0000000  3
   2969   2968   2977   2978     1  0.0000000  0.6508444  3
   2969   2968   2977   2979     1  0.0000000  0.6508444  3
   2970   2968   2977   2986     1  0.0000000  1.0460000  1
   2970   2968   2977   2986     1  0.0000000  0.0000000  3
   2970   2968   2977   2978     1  0.0000000  0.6508444  3
   2970   2968   2977   2979     1  0.0000000  0.6508444  3
   2972   2971   2983   6195     1  0.0000000  1.0460000  1
   2972   2971   2983   6195     1  0.0000000  0.0000000  3
   2972   2971   2983   2984     1  0.0000000  0.6508444  3
   2972   2971   2983   2985     1  0.0000000  0.6508444  3
   2973   2971   2983   6195     1  0.0000000  1.0460000  1
   2973   2971   2983   6195     1  0.0000000  0.0000000  3
   2973   2971   2983   2984     1  0.0000000  0.6508444  3
   2973   2971   2983   2985     1  0.0000000  0.6508444  3
   2975   2974   2980   6164     1  0.0000000  1.0460000  1
   2975   2974   2980   6164     1  0.0000000  0.0000000  3
   2975   2974   2980   2981     1  0.0000000  0.6508444  3
   2975   2974   2980   2982     1  0.0000000  0.6508444  3
   2976   2974   2980   6164     1  0.0000000  1.0460000  1
   2976   2974   2980   6164     1  0.0000000  0.0000000  3
   2976   2974   2980   2981     1  0.0000000  0.6508444  3
   2976   2974   2980   2982     1  0.0000000  0.6508444  3
   2980   6164   6134   6135     1  0.0000000  1.6038667  3
   2980   6164   6134   6136     1  0.0000000  1.6038667  3
   2981   2980   6164   6134     1  0.0000000  1.6038667  3
   2982   2980   6164   6134     1  0.0000000  1.6038667  3
   2983   6195   6165   6166     1  0.0000000  1.6038667  3
   2983   6195   6165   6167     1  0.0000000  1.6038667  3
   2984   2983   6195   6165     1  0.0000000  1.6038667  3
   2985   2983   6195   6165     1  0.0000000  1.6038667  3
   2987   2988   3000   3001     1  0.0000000  0.6508444  3
   2987   2988   3000   3002     1  0.0000000  0.6508444  3
   2987   2991   3003   3004     1  0.0000000  0.6508444  3
   2987   2991   3003   3005     1  0.0000000  0.6508444  3
   2987   2994   2997   2998     1  0.0000000  0.6508444  3
   2987   2994   2997   2999     1  0.0000000  0.6508444  3
   2988   2987   2991   2992     1  0.0000000  1.2552000  3
   2988   2987   2991   2993     1  0.0000000  1.2552000  3
   2988   2987   2994   2995     1  0.0000000  1.2552000  3
   2988   2987   2994   2996     1  0.0000000  1.2552000  3
   2988   3000   3012   3013     1  0.0000000  0.6508444  3
   2988   3000   3012   3014     1  0.0000000  0.6508444  3
   2989   2988   2987   2991     1  0.0000000  1.2552000  3
   2989   2988   2987   2994     1  0.0000000  1.2552000  3
   2989   2988   3000   3012     1  0.0000000  0.6508444  3
   2989   2988   3000   3001     1  0.0000000  0.6508444  3
   2989   2988   3000   3002     1  0.0000000  0.6508444  3
   2990   2988   2987   2991     1  0.0000000  1.2552000  3
   2990   2988   2987   2994     1  0.0000000  1.2552000  3
   2990   2988   3000   3012     1  0.0000000  0.6508444  3
   2990   2988   3000   3001     1  0.0000000  0.6508444  3
   2990   2988   3000   3002     1  0.0000000  0.6508444  3
   2991   2987   2994   2995     1  0.0000000  1.2552000  3
   2991   2987   2994   2996     1  0.0000000  1.2552000  3
   2991   3003   3009   3010     1  0.0000000  0.6508444  3
   2991   3003   3009   3011     1  0.0000000  0.6508444  3
   2992   2991   2987   2994     1  0.0000000  1.2552000  3
   2992   2991   3003   3009     1  0.0000000  0.6508444  3
   2992   2991   3003   3004     1  0.0000000  0.6508444  3
   2992   2991   3003   3005     1  0.0000000  0.6508444  3
   2993   2991   2987   2994     1  0.0000000  1.2552000  3
   2993   2991   3003   3009     1  0.0000000  0.6508444  3
   2993   2991   3003   3004     1  0.0000000  0.6508444  3
   2993   2991   3003   3005     1  0.0000000  0.6508444  3
   2994   2997   3006   3007     1  0.0000000  0.6508444  3
   2994   2997   3006   3008     1  0.0000000  0.6508444  3
   2995   2994   2997   3006     1  0.0000000  0.6508444  3
   2995   2994   2997   2998     1  0.0000000  0.6508444  3
   2995   2994   2997   2999     1  0.0000000  0.6508444  3
   2996   2994   2997   3006     1  0.0000000  0.6508444  3
   2996   2994   2997   2998     1  0.0000000  0.6508444  3
   2996   2994   2997   2999     1  0.0000000  0.6508444  3
   2998   2997   3006   3015     1  0.0000000  1.0460000  1
   2998   2997   3006   3015     1  0.0000000  0.0000000  3
   2998   2997   3006   3007     1  0.0000000  0.6508444  3
   2998   2997   3006   3008     1  0.0000000  0.6508444  3
   2999   2997   3006   3015     1  0.0000000  1.0460000  1
   2999   2997   3006   3015     1  0.0000000  0.0000000  3
   2999   2997   3006   3007     1  0.0000000  0.6508444  3
   2999   2997   3006   3008     1  0.0000000  0.6508444  3
   3001   3000   3012   6257     1  0.0000000  1.0460000  1
   3001   3000   3012   6257     1  0.0000000  0.0000000  3
   3001   3000   3012   3013     1  0.0000000  0.6508444  3
   3001   3000   3012   3014     1  0.0000000  0.6508444  3
   3002   3000   3012   6257     1  0.0000000  1.0460000  1
   3002   3000   3012   6257     1  0.0000000  0.0000000  3
   3002   3000   3012   3013     1  0.0000000  0.6508444  3
   3002   3000   3012   3014     1  0.0000000  0.6508444  3
   3004   3003   3009   6226     1  0.0000000  1.0460000  1
   3004   3003   3009   6226     1  0.0000000  0.0000000  3
   3004   3003   3009   3010     1  0.0000000  0.6508444  3
   3004   3003   3009   3011     1  0.0000000  0.6508444  3
   3005   3003   3009   6226     1  0.0000000  1.0460000  1
   3005   3003   3009   6226     1  0.0000000  0.0000000  3
   3005   3003   3009   3010     1  0.0000000  0.6508444  3
   3005   3003   3009   3011     1  0.0000000  0.6508444  3
   3009   6226   6196   6197     1  0.0000000  1.6038667  3
   3009   6226   6196   6198     1  0.0000000  1.6038667  3
   3010   3009   6226   6196     1  0.0000000  1.6038667  3
   3011   3009   6226   6196     1  0.0000000  1.6038667  3
   3012   6257   6227   6228     1  0.0000000  1.6038667  3
   3012   6257   6227   6229     1  0.0000000  1.6038667  3
   3013   3012   6257   6227     1  0.0000000  1.6038667  3
   3014   3012   6257   6227     1  0.0000000  1.6038667  3
   3016   3017   3029   3030     1  0.0000000  0.6508444  3
   3016   3017   3029   3031     1  0.0000000  0.6508444  3
   3016   3020   3032   3033     1  0.0000000  0.6508444  3
   3016   3020   3032   3034     1  0.0000000  0.6508444  3
   3016   3023   3026   3027     1  0.0000000  0.6508444  3
   3016   3023   3026   3028     1  0.0000000  0.6508444  3
   3017   3016   3020   3021     1  0.0000000  1.2552000  3
   3017   3016   3020   3022     1  0.0000000  1.2552000  3
   3017   3016   3023   3024     1  0.0000000  1.2552000  3
   3017   3016   3023   3025     1  0.0000000  1.2552000  3
   3017   3029   3041   3042     1  0.0000000  0.6508444  3
   3017   3029   3041   3043     1  0.0000000  0.6508444  3
   3018   3017   3016   3020     1  0.0000000  1.2552000  3
   3018   3017   3016   3023     1  0.0000000  1.2552000  3
   3018   3017   3029   3041     1  0.0000000  0.6508444  3
   3018   3017   3029   3030     1  0.0000000  0.6508444  3
   3018   3017   3029   3031     1  0.0000000  0.6508444  3
   3019   3017   3016   3020     1  0.0000000  1.2552000  3
   3019   3017   3016   3023     1  0.0000000  1.2552000  3
   3019   3017   3029   3041     1  0.0000000  0.6508444  3
   3019   3017   3029   3030     1  0.0000000  0.6508444  3
   3019   3017   3029   3031     1  0.0000000  0.6508444  3
   3020   3016   3023   3024     1  0.0000000  1.2552000  3
   3020   3016   3023   3025     1  0.0000000  1.2552000  3
   3020   3032   3038   3039     1  0.0000000  0.6508444  3
   3020   3032   3038   3040     1  0.0000000  0.6508444  3
   3021   3020   3016   3023     1  0.0000000  1.2552000  3
   3021   3020   3032   3038     1  0.0000000  0.6508444  3
   3021   3020   3032   3033     1  0.0000000  0.6508444  3
   3021   3020   3032   3034     1  0.0000000  0.6508444  3
   3022   3020   3016   3023     1  0.0000000  1.2552000  3
   3022   3020   3032   3038     1  0.0000000  0.6508444  3
   3022   3020   3032   3033     1  0.0000000  0.6508444  3
   3022   3020   3032   3034     1  0.0000000  0.6508444  3
   3023   3026   3035   3036     1  0.0000000  0.6508444  3
   3023   3026   3035   3037     1  0.0000000  0.6508444  3
   3024   3023   3026   3035     1  0.0000000  0.6508444  3
   3024   3023   3026   3027     1  0.0000000  0.6508444  3
   3024   3023   3026   3028     1  0.0000000  0.6508444  3
   3025   3023   3026   3035     1  0.0000000  0.6508444  3
   3025   3023   3026   3027     1  0.0000000  0.6508444  3
   3025   3023   3026   3028     1  0.0000000  0.6508444  3
   3027   3026   3035   3044     1  0.0000000  1.0460000  1
   3027   3026   3035   3044     1  0.0000000  0.0000000  3
   3027   3026   3035   3036     1  0.0000000  0.6508444  3
   3027   3026   3035   3037     1  0.0000000  0.6508444  3
   3028   3026   3035   3044     1  0.0000000  1.0460000  1
   3028   3026   3035   3044     1  0.0000000  0.0000000  3
   3028   3026   3035   3036     1  0.0000000  0.6508444  3
   3028   3026   3035   3037     1  0.0000000  0.6508444  3
   3030   3029   3041   6319     1  0.0000000  1.0460000  1
   3030   3029   3041   6319     1  0.0000000  0.0000000  3
   3030   3029   3041   3042     1  0.0000000  0.6508444  3
   3030   3029   3041   3043     1  0.0000000  0.6508444  3
   3031   3029   3041   6319     1  0.0000000  1.0460000  1
   3031   3029   3041   6319     1  0.0000000  0.0000000  3
   3031   3029   3041   3042     1  0.0000000  0.6508444  3
   3031   3029   3041   3043     1  0.0000000  0.6508444  3
   3033   3032   3038   6288     1  0.0000000  1.0460000  1
   3033   3032   3038   6288     1  0.0000000  0.0000000  3
   3033   3032   3038   3039     1  0.0000000  0.6508444  3
   3033   3032   3038   3040     1  0.0000000  0.6508444  3
   3034   3032   3038   6288     1  0.0000000  1.0460000  1
   3034   3032   3038   6288     1  0.0000000  0.0000000  3
   3034   3032   3038   3039     1  0.0000000  0.6508444  3
   3034   3032   3038   3040     1  0.0000000  0.6508444  3
   3038   6288   6258   6259     1  0.0000000  1.6038667  3
   3038   6288   6258   6260     1  0.0000000  1.6038667  3
   3039   3038   6288   6258     1  0.0000000  1.6038667  3
   3040   3038   6288   6258     1  0.0000000  1.6038667  3
   3041   6319   6289   6290     1  0.0000000  1.6038667  3
   3041   6319   6289   6291     1  0.0000000  1.6038667  3
   3042   3041   6319   6289     1  0.0000000  1.6038667  3
   3043   3041   6319   6289     1  0.0000000  1.6038667  3
   3045   3046   3058   3059     1  0.0000000  0.6508444  3
   3045   3046   3058   3060     1  0.0000000  0.6508444  3
   3045   3049   3061   3062     1  0.0000000  0.6508444  3
   3045   3049   3061   3063     1  0.0000000  0.6508444  3
   3045   3052   3055   3056     1  0.0000000  0.6508444  3
   3045   3052   3055   3057     1  0.0000000  0.6508444  3
   3046   3045   3049   3050     1  0.0000000  1.2552000  3
   3046   3045   3049   3051     1  0.0000000  1.2552000  3
   3046   3045   3052   3053     1  0.0000000  1.2552000  3
   3046   3045   3052   3054     1  0.0000000  1.2552000  3
   3046   3058   3070   3071     1  0.0000000  0.6508444  3
   3046   3058   3070   3072     1  0.0000000  0.6508444  3
   3047   3046   3045   3049     1  0.0000000  1.2552000  3
   3047   3046   3045   3052     1  0.0000000  1.2552000  3
   3047   3046   3058   3070     1  0.0000000  0.6508444  3
   3047   3046   3058   3059     1  0.0000000  0.6508444  3
   3047   3046   3058   3060     1  0.0000000  0.6508444  3
   3048   3046   3045   3049     1  0.0000000  1.2552000  3
   3048   3046   3045   3052     1  0.0000000  1.2552000  3
   3048   3046   3058   3070     1  0.0000000  0.6508444  3
   3048   3046   3058   3059     1  0.0000000  0.6508444  3
   3048   3046   3058   3060     1  0.0000000  0.6508444  3
   3049   3045   3052   3053     1  0.0000000  1.2552000  3
   3049   3045   3052   3054     1  0.0000000  1.2552000  3
   3049   3061   3067   3068     1  0.0000000  0.6508444  3
   3049   3061   3067   3069     1  0.0000000  0.6508444  3
   3050   3049   3045   3052     1  0.0000000  1.2552000  3
   3050   3049   3061   3067     1  0.0000000  0.6508444  3
   3050   3049   3061   3062     1  0.0000000  0.6508444  3
   3050   3049   3061   3063     1  0.0000000  0.6508444  3
   3051   3049   3045   3052     1  0.0000000  1.2552000  3
   3051   3049   3061   3067     1  0.0000000  0.6508444  3
   3051   3049   3061   3062     1  0.0000000  0.6508444  3
   3051   3049   3061   3063     1  0.0000000  0.6508444  3
   3052   3055   3064   3065     1  0.0000000  0.6508444  3
   3052   3055   3064   3066     1  0.0000000  0.6508444  3
   3053   3052   3055   3064     1  0.0000000  0.6508444  3
   3053   3052   3055   3056     1  0.0000000  0.6508444  3
   3053   3052   3055   3057     1  0.0000000  0.6508444  3
   3054   3052   3055   3064     1  0.0000000  0.6508444  3
   3054   3052   3055   3056     1  0.0000000  0.6508444  3
   3054   3052   3055   3057     1  0.0000000  0.6508444  3
   3056   3055   3064   3073     1  0.0000000  1.0460000  1
   3056   3055   3064   3073     1  0.0000000  0.0000000  3
   3056   3055   3064   3065     1  0.0000000  0.6508444  3
   3056   3055   3064   3066     1  0.0000000  0.6508444  3
   3057   3055   3064   3073     1  0.0000000  1.0460000  1
   3057   3055   3064   3073     1  0.0000000  0.0000000  3
   3057   3055   3064   3065     1  0.0000000  0.6508444  3
   3057   3055   3064   3066     1  0.0000000  0.6508444  3
   3059   3058   3070   6381     1  0.0000000  1.0460000  1
   3059   3058   3070   6381     1  0.0000000  0.0000000  3
   3059   3058   3070   3071     1  0.0000000  0.6508444  3
   3059   3058   3070   3072     1  0.0000000  0.6508444  3
   3060   3058   3070   6381     1  0.0000000  1.0460000  1
   3060   3058   3070   6381     1  0.0000000  0.0000000  3
   3060   3058   3070   3071     1  0.0000000  0.6508444  3
   3060   3058   3070   3072     1  0.0000000  0.6508444  3
   3062   3061   3067   6350     1  0.0000000  1.0460000  1
   3062   3061   3067   6350     1  0.0000000  0.0000000  3
   3062   3061   3067   3068     1  0.0000000  0.6508444  3
   3062   3061   3067   3069     1  0.0000000  0.6508444  3
   3063   3061   3067   6350     1  0.0000000  1.0460000  1
   3063   3061   3067   6350     1  0.0000000  0.0000000  3
   3063   3061   3067   3068     1  0.0000000  0.6508444  3
   3063   3061   3067   3069     1  0.0000000  0.6508444  3
   3067   6350   6320   6321     1  0.0000000  1.6038667  3
   3067   6350   6320   6322     1  0.0000000  1.6038667  3
   3068   3067   6350   6320     1  0.0000000  1.6038667  3
   3069   3067   6350   6320     1  0.0000000  1.6038667  3
   3070   6381   6351   6352     1  0.0000000  1.6038667  3
   3070   6381   6351   6353     1  0.0000000  1.6038667  3
   3071   3070   6381   6351     1  0.0000000  1.6038667  3
   3072   3070   6381   6351     1  0.0000000  1.6038667  3
   3074   3075   3087   3088     1  0.0000000  0.6508444  3
   3074   3075   3087   3089     1  0.0000000  0.6508444  3
   3074   3078   3090   3091     1  0.0000000  0.6508444  3
   3074   3078   3090   3092     1  0.0000000  0.6508444  3
   3074   3081   3084   3085     1  0.0000000  0.6508444  3
   3074   3081   3084   3086     1  0.0000000  0.6508444  3
   3075   3074   3078   3079     1  0.0000000  1.2552000  3
   3075   3074   3078   3080     1  0.0000000  1.2552000  3
   3075   3074   3081   3082     1  0.0000000  1.2552000  3
   3075   3074   3081   3083     1  0.0000000  1.2552000  3
   3075   3087   3099   3100     1  0.0000000  0.6508444  3
   3075   3087   3099   3101     1  0.0000000  0.6508444  3
   3076   3075   3074   3078     1  0.0000000  1.2552000  3
   3076   3075   3074   3081     1  0.0000000  1.2552000  3
   3076   3075   3087   3099     1  0.0000000  0.6508444  3
   3076   3075   3087   3088     1  0.0000000  0.6508444  3
   3076   3075   3087   3089     1  0.0000000  0.6508444  3
   3077   3075   3074   3078     1  0.0000000  1.2552000  3
   3077   3075   3074   3081     1  0.0000000  1.2552000  3
   3077   3075   3087   3099     1  0.0000000  0.6508444  3
   3077   3075   3087   3088     1  0.0000000  0.6508444  3
   3077   3075   3087   3089     1  0.0000000  0.6508444  3
   3078   3074   3081   3082     1  0.0000000  1.2552000  3
   3078   3074   3081   3083     1  0.0000000  1.2552000  3
   3078   3090   3096   3097     1  0.0000000  0.6508444  3
   3078   3090   3096   3098     1  0.0000000  0.6508444  3
   3079   3078   3074   3081     1  0.0000000  1.2552000  3
   3079   3078   3090   3096     1  0.0000000  0.6508444  3
   3079   3078   3090   3091     1  0.0000000  0.6508444  3
   3079   3078   3090   3092     1  0.0000000  0.6508444  3
   3080   3078   3074   3081     1  0.0000000  1.2552000  3
   3080   3078   3090   3096     1  0.0000000  0.6508444  3
   3080   3078   3090   3091     1  0.0000000  0.6508444  3
   3080   3078   3090   3092     1  0.0000000  0.6508444  3
   3081   3084   3093   3094     1  0.0000000  0.6508444  3
   3081   3084   3093   3095     1  0.0000000  0.6508444  3
   3082   3081   3084   3093     1  0.0000000  0.6508444  3
   3082   3081   3084   3085     1  0.0000000  0.6508444  3
   3082   3081   3084   3086     1  0.0000000  0.6508444  3
   3083   3081   3084   3093     1  0.0000000  0.6508444  3
   3083   3081   3084   3085     1  0.0000000  0.6508444  3
   3083   3081   3084   3086     1  0.0000000  0.6508444  3
   3085   3084   3093   3102     1  0.0000000  1.0460000  1
   3085   3084   3093   3102     1  0.0000000  0.0000000  3
   3085   3084   3093   3094     1  0.0000000  0.6508444  3
   3085   3084   3093   3095     1  0.0000000  0.6508444  3
   3086   3084   3093   3102     1  0.0000000  1.0460000  1
   3086   3084   3093   3102     1  0.0000000  0.0000000  3
   3086   3084   3093   3094     1  0.0000000  0.6508444  3
   3086   3084   3093   3095     1  0.0000000  0.6508444  3
   3088   3087   3099   6443     1  0.0000000  1.0460000  1
   3088   3087   3099   6443     1  0.0000000  0.0000000  3
   3088   3087   3099   3100     1  0.0000000  0.6508444  3
   3088   3087   3099   3101     1  0.0000000  0.6508444  3
   3089   3087   3099   6443     1  0.0000000  1.0460000  1
   3089   3087   3099   6443     1  0.0000000  0.0000000  3
   3089   3087   3099   3100     1  0.0000000  0.6508444  3
   3089   3087   3099   3101     1  0.0000000  0.6508444  3
   3091   3090   3096   6412     1  0.0000000  1.0460000  1
   3091   3090   3096   6412     1  0.0000000  0.0000000  3
   3091   3090   3096   3097     1  0.0000000  0.6508444  3
   3091   3090   3096   3098     1  0.0000000  0.6508444  3
   3092   3090   3096   6412     1  0.0000000  1.0460000  1
   3092   3090   3096   6412     1  0.0000000  0.0000000  3
   3092   3090   3096   3097     1  0.0000000  0.6508444  3
   3092   3090   3096   3098     1  0.0000000  0.6508444  3
   3096   6412   6382   6383     1  0.0000000  1.6038667  3
   3096   6412   6382   6384     1  0.0000000  1.6038667  3
   3097   3096   6412   6382     1  0.0000000  1.6038667  3
   3098   3096   6412   6382     1  0.0000000  1.6038667  3
   3099   6443   6413   6414     1  0.0000000  1.6038667  3
   3099   6443   6413   6415     1  0.0000000  1.6038667  3
   3100   3099   6443   6413     1  0.0000000  1.6038667  3
   3101   3099   6443   6413     1  0.0000000  1.6038667  3
   3103   3104   3116   3117     1  0.0000000  0.6508444  3
   3103   3104   3116   3118     1  0.0000000  0.6508444  3
   3103   3107   3119   3120     1  0.0000000  0.6508444  3
   3103   3107   3119   3121     1  0.0000000  0.6508444  3
   3103   3110   3113   3114     1  0.0000000  0.6508444  3
   3103   3110   3113   3115     1  0.0000000  0.6508444  3
   3104   3103   3107   3108     1  0.0000000  1.2552000  3
   3104   3103   3107   3109     1  0.0000000  1.2552000  3
   3104   3103   3110   3111     1  0.0000000  1.2552000  3
   3104   3103   3110   3112     1  0.0000000  1.2552000  3
   3104   3116   3128   3129     1  0.0000000  0.6508444  3
   3104   3116   3128   3130     1  0.0000000  0.6508444  3
   3105   3104   3103   3107     1  0.0000000  1.2552000  3
   3105   3104   3103   3110     1  0.0000000  1.2552000  3
   3105   3104   3116   3128     1  0.0000000  0.6508444  3
   3105   3104   3116   3117     1  0.0000000  0.6508444  3
   3105   3104   3116   3118     1  0.0000000  0.6508444  3
   3106   3104   3103   3107     1  0.0000000  1.2552000  3
   3106   3104   3103   3110     1  0.0000000  1.2552000  3
   3106   3104   3116   3128     1  0.0000000  0.6508444  3
   3106   3104   3116   3117     1  0.0000000  0.6508444  3
   3106   3104   3116   3118     1  0.0000000  0.6508444  3
   3107   3103   3110   3111     1  0.0000000  1.2552000  3
   3107   3103   3110   3112     1  0.0000000  1.2552000  3
   3107   3119   3125   3126     1  0.0000000  0.6508444  3
   3107   3119   3125   3127     1  0.0000000  0.6508444  3
   3108   3107   3103   3110     1  0.0000000  1.2552000  3
   3108   3107   3119   3125     1  0.0000000  0.6508444  3
   3108   3107   3119   3120     1  0.0000000  0.6508444  3
   3108   3107   3119   3121     1  0.0000000  0.6508444  3
   3109   3107   3103   3110     1  0.0000000  1.2552000  3
   3109   3107   3119   3125     1  0.0000000  0.6508444  3
   3109   3107   3119   3120     1  0.0000000  0.6508444  3
   3109   3107   3119   3121     1  0.0000000  0.6508444  3
   3110   3113   3122   3123     1  0.0000000  0.6508444  3
   3110   3113   3122   3124     1  0.0000000  0.6508444  3
   3111   3110   3113   3122     1  0.0000000  0.6508444  3
   3111   3110   3113   3114     1  0.0000000  0.6508444  3
   3111   3110   3113   3115     1  0.0000000  0.6508444  3
   3112   3110   3113   3122     1  0.0000000  0.6508444  3
   3112   3110   3113   3114     1  0.0000000  0.6508444  3
   3112   3110   3113   3115     1  0.0000000  0.6508444  3
   3114   3113   3122   3131     1  0.0000000  1.0460000  1
   3114   3113   3122   3131     1  0.0000000  0.0000000  3
   3114   3113   3122   3123     1  0.0000000  0.6508444  3
   3114   3113   3122   3124     1  0.0000000  0.6508444  3
   3115   3113   3122   3131     1  0.0000000  1.0460000  1
   3115   3113   3122   3131     1  0.0000000  0.0000000  3
   3115   3113   3122   3123     1  0.0000000  0.6508444  3
   3115   3113   3122   3124     1  0.0000000  0.6508444  3
   3117   3116   3128   6505     1  0.0000000  1.0460000  1
   3117   3116   3128   6505     1  0.0000000  0.0000000  3
   3117   3116   3128   3129     1  0.0000000  0.6508444  3
   3117   3116   3128   3130     1  0.0000000  0.6508444  3
   3118   3116   3128   6505     1  0.0000000  1.0460000  1
   3118   3116   3128   6505     1  0.0000000  0.0000000  3
   3118   3116   3128   3129     1  0.0000000  0.6508444  3
   3118   3116   3128   3130     1  0.0000000  0.6508444  3
   3120   3119   3125   6474     1  0.0000000  1.0460000  1
   3120   3119   3125   6474     1  0.0000000  0.0000000  3
   3120   3119   3125   3126     1  0.0000000  0.6508444  3
   3120   3119   3125   3127     1  0.0000000  0.6508444  3
   3121   3119   3125   6474     1  0.0000000  1.0460000  1
   3121   3119   3125   6474     1  0.0000000  0.0000000  3
   3121   3119   3125   3126     1  0.0000000  0.6508444  3
   3121   3119   3125   3127     1  0.0000000  0.6508444  3
   3125   6474   6444   6445     1  0.0000000  1.6038667  3
   3125   6474   6444   6446     1  0.0000000  1.6038667  3
   3126   3125   6474   6444     1  0.0000000  1.6038667  3
   3127   3125   6474   6444     1  0.0000000  1.6038667  3
   3128   6505   6475   6476     1  0.0000000  1.6038667  3
   3128   6505   6475   6477     1  0.0000000  1.6038667  3
   3129   3128   6505   6475     1  0.0000000  1.6038667  3
   3130   3128   6505   6475     1  0.0000000  1.6038667  3
   3132   3133   3145   3146     1  0.0000000  0.6508444  3
   3132   3133   3145   3147     1  0.0000000  0.6508444  3
   3132   3136   3148   3149     1  0.0000000  0.6508444  3
   3132   3136   3148   3150     1  0.0000000  0.6508444  3
   3132   3139   3142   3143     1  0.0000000  0.6508444  3
   3132   3139   3142   3144     1  0.0000000  0.6508444  3
   3133   3132   3136   3137     1  0.0000000  1.2552000  3
   3133   3132   3136   3138     1  0.0000000  1.2552000  3
   3133   3132   3139   3140     1  0.0000000  1.2552000  3
   3133   3132   3139   3141     1  0.0000000  1.2552000  3
   3133   3145   3157   3158     1  0.0000000  0.6508444  3
   3133   3145   3157   3159     1  0.0000000  0.6508444  3
   3134   3133   3132   3136     1  0.0000000  1.2552000  3
   3134   3133   3132   3139     1  0.0000000  1.2552000  3
   3134   3133   3145   3157     1  0.0000000  0.6508444  3
   3134   3133   3145   3146     1  0.0000000  0.6508444  3
   3134   3133   3145   3147     1  0.0000000  0.6508444  3
   3135   3133   3132   3136     1  0.0000000  1.2552000  3
   3135   3133   3132   3139     1  0.0000000  1.2552000  3
   3135   3133   3145   3157     1  0.0000000  0.6508444  3
   3135   3133   3145   3146     1  0.0000000  0.6508444  3
   3135   3133   3145   3147     1  0.0000000  0.6508444  3
   3136   3132   3139   3140     1  0.0000000  1.2552000  3
   3136   3132   3139   3141     1  0.0000000  1.2552000  3
   3136   3148   3154   3155     1  0.0000000  0.6508444  3
   3136   3148   3154   3156     1  0.0000000  0.6508444  3
   3137   3136   3132   3139     1  0.0000000  1.2552000  3
   3137   3136   3148   3154     1  0.0000000  0.6508444  3
   3137   3136   3148   3149     1  0.0000000  0.6508444  3
   3137   3136   3148   3150     1  0.0000000  0.6508444  3
   3138   3136   3132   3139     1  0.0000000  1.2552000  3
   3138   3136   3148   3154     1  0.0000000  0.6508444  3
   3138   3136   3148   3149     1  0.0000000  0.6508444  3
   3138   3136   3148   3150     1  0.0000000  0.6508444  3
   3139   3142   3151   3152     1  0.0000000  0.6508444  3
   3139   3142   3151   3153     1  0.0000000  0.6508444  3
   3140   3139   3142   3151     1  0.0000000  0.6508444  3
   3140   3139   3142   3143     1  0.0000000  0.6508444  3
   3140   3139   3142   3144     1  0.0000000  0.6508444  3
   3141   3139   3142   3151     1  0.0000000  0.6508444  3
   3141   3139   3142   3143     1  0.0000000  0.6508444  3
   3141   3139   3142   3144     1  0.0000000  0.6508444  3
   3143   3142   3151   3160     1  0.0000000  1.0460000  1
   3143   3142   3151   3160     1  0.0000000  0.0000000  3
   3143   3142   3151   3152     1  0.0000000  0.6508444  3
   3143   3142   3151   3153     1  0.0000000  0.6508444  3
   3144   3142   3151   3160     1  0.0000000  1.0460000  1
   3144   3142   3151   3160     1  0.0000000  0.0000000  3
   3144   3142   3151   3152     1  0.0000000  0.6508444  3
   3144   3142   3151   3153     1  0.0000000  0.6508444  3
   3146   3145   3157   6567     1  0.0000000  1.0460000  1
   3146   3145   3157   6567     1  0.0000000  0.0000000  3
   3146   3145   3157   3158     1  0.0000000  0.6508444  3
   3146   3145   3157   3159     1  0.0000000  0.6508444  3
   3147   3145   3157   6567     1  0.0000000  1.0460000  1
   3147   3145   3157   6567     1  0.0000000  0.0000000  3
   3147   3145   3157   3158     1  0.0000000  0.6508444  3
   3147   3145   3157   3159     1  0.0000000  0.6508444  3
   3149   3148   3154   6536     1  0.0000000  1.0460000  1
   3149   3148   3154   6536     1  0.0000000  0.0000000  3
   3149   3148   3154   3155     1  0.0000000  0.6508444  3
   3149   3148   3154   3156     1  0.0000000  0.6508444  3
   3150   3148   3154   6536     1  0.0000000  1.0460000  1
   3150   3148   3154   6536     1  0.0000000  0.0000000  3
   3150   3148   3154   3155     1  0.0000000  0.6508444  3
   3150   3148   3154   3156     1  0.0000000  0.6508444  3
   3154   6536   6506   6507     1  0.0000000  1.6038667  3
   3154   6536   6506   6508     1  0.0000000  1.6038667  3
   3155   3154   6536   6506     1  0.0000000  1.6038667  3
   3156   3154   6536   6506     1  0.0000000  1.6038667  3
   3157   6567   6537   6538     1  0.0000000  1.6038667  3
   3157   6567   6537   6539     1  0.0000000  1.6038667  3
   3158   3157   6567   6537     1  0.0000000  1.6038667  3
   3159   3157   6567   6537     1  0.0000000  1.6038667  3
   3161   3162   3174   3175     1  0.0000000  0.6508444  3
   3161   3162   3174   3176     1  0.0000000  0.6508444  3
   3161   3165   3177   3178     1  0.0000000  0.6508444  3
   3161   3165   3177   3179     1  0.0000000  0.6508444  3
   3161   3168   3171   3172     1  0.0000000  0.6508444  3
   3161   3168   3171   3173     1  0.0000000  0.6508444  3
   3162   3161   3165   3166     1  0.0000000  1.2552000  3
   3162   3161   3165   3167     1  0.0000000  1.2552000  3
   3162   3161   3168   3169     1  0.0000000  1.2552000  3
   3162   3161   3168   3170     1  0.0000000  1.2552000  3
   3162   3174   3186   3187     1  0.0000000  0.6508444  3
   3162   3174   3186   3188     1  0.0000000  0.6508444  3
   3163   3162   3161   3165     1  0.0000000  1.2552000  3
   3163   3162   3161   3168     1  0.0000000  1.2552000  3
   3163   3162   3174   3186     1  0.0000000  0.6508444  3
   3163   3162   3174   3175     1  0.0000000  0.6508444  3
   3163   3162   3174   3176     1  0.0000000  0.6508444  3
   3164   3162   3161   3165     1  0.0000000  1.2552000  3
   3164   3162   3161   3168     1  0.0000000  1.2552000  3
   3164   3162   3174   3186     1  0.0000000  0.6508444  3
   3164   3162   3174   3175     1  0.0000000  0.6508444  3
   3164   3162   3174   3176     1  0.0000000  0.6508444  3
   3165   3161   3168   3169     1  0.0000000  1.2552000  3
   3165   3161   3168   3170     1  0.0000000  1.2552000  3
   3165   3177   3183   3184     1  0.0000000  0.6508444  3
   3165   3177   3183   3185     1  0.0000000  0.6508444  3
   3166   3165   3161   3168     1  0.0000000  1.2552000  3
   3166   3165   3177   3183     1  0.0000000  0.6508444  3
   3166   3165   3177   3178     1  0.0000000  0.6508444  3
   3166   3165   3177   3179     1  0.0000000  0.6508444  3
   3167   3165   3161   3168     1  0.0000000  1.2552000  3
   3167   3165   3177   3183     1  0.0000000  0.6508444  3
   3167   3165   3177   3178     1  0.0000000  0.6508444  3
   3167   3165   3177   3179     1  0.0000000  0.6508444  3
   3168   3171   3180   3181     1  0.0000000  0.6508444  3
   3168   3171   3180   3182     1  0.0000000  0.6508444  3
   3169   3168   3171   3180     1  0.0000000  0.6508444  3
   3169   3168   3171   3172     1  0.0000000  0.6508444  3
   3169   3168   3171   3173     1  0.0000000  0.6508444  3
   3170   3168   3171   3180     1  0.0000000  0.6508444  3
   3170   3168   3171   3172     1  0.0000000  0.6508444  3
   3170   3168   3171   3173     1  0.0000000  0.6508444  3
   3172   3171   3180   3189     1  0.0000000  1.0460000  1
   3172   3171   3180   3189     1  0.0000000  0.0000000  3
   3172   3171   3180   3181     1  0.0000000  0.6508444  3
   3172   3171   3180   3182     1  0.0000000  0.6508444  3
   3173   3171   3180   3189     1  0.0000000  1.0460000  1
   3173   3171   3180   3189     1  0.0000000  0.0000000  3
   3173   3171   3180   3181     1  0.0000000  0.6508444  3
   3173   3171   3180   3182     1  0.0000000  0.6508444  3
   3175   3174   3186   6629     1  0.0000000  1.0460000  1
   3175   3174   3186   6629     1  0.0000000  0.0000000  3
   3175   3174   3186   3187     1  0.0000000  0.6508444  3
   3175   3174   3186   3188     1  0.0000000  0.6508444  3
   3176   3174   3186   6629     1  0.0000000  1.0460000  1
   3176   3174   3186   6629     1  0.0000000  0.0000000  3
   3176   3174   3186   3187     1  0.0000000  0.6508444  3
   3176   3174   3186   3188     1  0.0000000  0.6508444  3
   3178   3177   3183   6598     1  0.0000000  1.0460000  1
   3178   3177   3183   6598     1  0.0000000  0.0000000  3
   3178   3177   3183   3184     1  0.0000000  0.6508444  3
   3178   3177   3183   3185     1  0.0000000  0.6508444  3
   3179   3177   3183   6598     1  0.0000000  1.0460000  1
   3179   3177   3183   6598     1  0.0000000  0.0000000  3
   3179   3177   3183   3184     1  0.0000000  0.6508444  3
   3179   3177   3183   3185     1  0.0000000  0.6508444  3
   3183   6598   6568   6569     1  0.0000000  1.6038667  3
   3183   6598   6568   6570     1  0.0000000  1.6038667  3
   3184   3183   6598   6568     1  0.0000000  1.6038667  3
   3185   3183   6598   6568     1  0.0000000  1.6038667  3
   3186   6629   6599   6600     1  0.0000000  1.6038667  3
   3186   6629   6599   6601     1  0.0000000  1.6038667  3
   3187   3186   6629   6599     1  0.0000000  1.6038667  3
   3188   3186   6629   6599     1  0.0000000  1.6038667  3
   3190   3191   3203   3204     1  0.0000000  0.6508444  3
   3190   3191   3203   3205     1  0.0000000  0.6508444  3
   3190   3194   3206   3207     1  0.0000000  0.6508444  3
   3190   3194   3206   3208     1  0.0000000  0.6508444  3
   3190   3197   3200   3201     1  0.0000000  0.6508444  3
   3190   3197   3200   3202     1  0.0000000  0.6508444  3
   3191   3190   3194   3195     1  0.0000000  1.2552000  3
   3191   3190   3194   3196     1  0.0000000  1.2552000  3
   3191   3190   3197   3198     1  0.0000000  1.2552000  3
   3191   3190   3197   3199     1  0.0000000  1.2552000  3
   3191   3203   3215   3216     1  0.0000000  0.6508444  3
   3191   3203   3215   3217     1  0.0000000  0.6508444  3
   3192   3191   3190   3194     1  0.0000000  1.2552000  3
   3192   3191   3190   3197     1  0.0000000  1.2552000  3
   3192   3191   3203   3215     1  0.0000000  0.6508444  3
   3192   3191   3203   3204     1  0.0000000  0.6508444  3
   3192   3191   3203   3205     1  0.0000000  0.6508444  3
   3193   3191   3190   3194     1  0.0000000  1.2552000  3
   3193   3191   3190   3197     1  0.0000000  1.2552000  3
   3193   3191   3203   3215     1  0.0000000  0.6508444  3
   3193   3191   3203   3204     1  0.0000000  0.6508444  3
   3193   3191   3203   3205     1  0.0000000  0.6508444  3
   3194   3190   3197   3198     1  0.0000000  1.2552000  3
   3194   3190   3197   3199     1  0.0000000  1.2552000  3
   3194   3206   3212   3213     1  0.0000000  0.6508444  3
   3194   3206   3212   3214     1  0.0000000  0.6508444  3
   3195   3194   3190   3197     1  0.0000000  1.2552000  3
   3195   3194   3206   3212     1  0.0000000  0.6508444  3
   3195   3194   3206   3207     1  0.0000000  0.6508444  3
   3195   3194   3206   3208     1  0.0000000  0.6508444  3
   3196   3194   3190   3197     1  0.0000000  1.2552000  3
   3196   3194   3206   3212     1  0.0000000  0.6508444  3
   3196   3194   3206   3207     1  0.0000000  0.6508444  3
   3196   3194   3206   3208     1  0.0000000  0.6508444  3
   3197   3200   3209   3210     1  0.0000000  0.6508444  3
   3197   3200   3209   3211     1  0.0000000  0.6508444  3
   3198   3197   3200   3209     1  0.0000000  0.6508444  3
   3198   3197   3200   3201     1  0.0000000  0.6508444  3
   3198   3197   3200   3202     1  0.0000000  0.6508444  3
   3199   3197   3200   3209     1  0.0000000  0.6508444  3
   3199   3197   3200   3201     1  0.0000000  0.6508444  3
   3199   3197   3200   3202     1  0.0000000  0.6508444  3
   3201   3200   3209   3218     1  0.0000000  1.0460000  1
   3201   3200   3209   3218     1  0.0000000  0.0000000  3
   3201   3200   3209   3210     1  0.0000000  0.6508444  3
   3201   3200   3209   3211     1  0.0000000  0.6508444  3
   3202   3200   3209   3218     1  0.0000000  1.0460000  1
   3202   3200   3209   3218     1  0.0000000  0.0000000  3
   3202   3200   3209   3210     1  0.0000000  0.6508444  3
   3202   3200   3209   3211     1  0.0000000  0.6508444  3
   3204   3203   3215   6691     1  0.0000000  1.0460000  1
   3204   3203   3215   6691     1  0.0000000  0.0000000  3
   3204   3203   3215   3216     1  0.0000000  0.6508444  3
   3204   3203   3215   3217     1  0.0000000  0.6508444  3
   3205   3203   3215   6691     1  0.0000000  1.0460000  1
   3205   3203   3215   6691     1  0.0000000  0.0000000  3
   3205   3203   3215   3216     1  0.0000000  0.6508444  3
   3205   3203   3215   3217     1  0.0000000  0.6508444  3
   3207   3206   3212   6660     1  0.0000000  1.0460000  1
   3207   3206   3212   6660     1  0.0000000  0.0000000  3
   3207   3206   3212   3213     1  0.0000000  0.6508444  3
   3207   3206   3212   3214     1  0.0000000  0.6508444  3
   3208   3206   3212   6660     1  0.0000000  1.0460000  1
   3208   3206   3212   6660     1  0.0000000  0.0000000  3
   3208   3206   3212   3213     1  0.0000000  0.6508444  3
   3208   3206   3212   3214     1  0.0000000  0.6508444  3
   3212   6660   6630   6631     1  0.0000000  1.6038667  3
   3212   6660   6630   6632     1  0.0000000  1.6038667  3
   3213   3212   6660   6630     1  0.0000000  1.6038667  3
   3214   3212   6660   6630     1  0.0000000  1.6038667  3
   3215   6691   6661   6662     1  0.0000000  1.6038667  3
   3215   6691   6661   6663     1  0.0000000  1.6038667  3
   3216   3215   6691   6661     1  0.0000000  1.6038667  3
   3217   3215   6691   6661     1  0.0000000  1.6038667  3
   3219   3220   3232   3233     1  0.0000000  0.6508444  3
   3219   3220   3232   3234     1  0.0000000  0.6508444  3
   3219   3223   3235   3236     1  0.0000000  0.6508444  3
   3219   3223   3235   3237     1  0.0000000  0.6508444  3
   3219   3226   3229   3230     1  0.0000000  0.6508444  3
   3219   3226   3229   3231     1  0.0000000  0.6508444  3
   3220   3219   3223   3224     1  0.0000000  1.2552000  3
   3220   3219   3223   3225     1  0.0000000  1.2552000  3
   3220   3219   3226   3227     1  0.0000000  1.2552000  3
   3220   3219   3226   3228     1  0.0000000  1.2552000  3
   3220   3232   3244   3245     1  0.0000000  0.6508444  3
   3220   3232   3244   3246     1  0.0000000  0.6508444  3
   3221   3220   3219   3223     1  0.0000000  1.2552000  3
   3221   3220   3219   3226     1  0.0000000  1.2552000  3
   3221   3220   3232   3244     1  0.0000000  0.6508444  3
   3221   3220   3232   3233     1  0.0000000  0.6508444  3
   3221   3220   3232   3234     1  0.0000000  0.6508444  3
   3222   3220   3219   3223     1  0.0000000  1.2552000  3
   3222   3220   3219   3226     1  0.0000000  1.2552000  3
   3222   3220   3232   3244     1  0.0000000  0.6508444  3
   3222   3220   3232   3233     1  0.0000000  0.6508444  3
   3222   3220   3232   3234     1  0.0000000  0.6508444  3
   3223   3219   3226   3227     1  0.0000000  1.2552000  3
   3223   3219   3226   3228     1  0.0000000  1.2552000  3
   3223   3235   3241   3242     1  0.0000000  0.6508444  3
   3223   3235   3241   3243     1  0.0000000  0.6508444  3
   3224   3223   3219   3226     1  0.0000000  1.2552000  3
   3224   3223   3235   3241     1  0.0000000  0.6508444  3
   3224   3223   3235   3236     1  0.0000000  0.6508444  3
   3224   3223   3235   3237     1  0.0000000  0.6508444  3
   3225   3223   3219   3226     1  0.0000000  1.2552000  3
   3225   3223   3235   3241     1  0.0000000  0.6508444  3
   3225   3223   3235   3236     1  0.0000000  0.6508444  3
   3225   3223   3235   3237     1  0.0000000  0.6508444  3
   3226   3229   3238   3239     1  0.0000000  0.6508444  3
   3226   3229   3238   3240     1  0.0000000  0.6508444  3
   3227   3226   3229   3238     1  0.0000000  0.6508444  3
   3227   3226   3229   3230     1  0.0000000  0.6508444  3
   3227   3226   3229   3231     1  0.0000000  0.6508444  3
   3228   3226   3229   3238     1  0.0000000  0.6508444  3
   3228   3226   3229   3230     1  0.0000000  0.6508444  3
   3228   3226   3229   3231     1  0.0000000  0.6508444  3
   3230   3229   3238   3247     1  0.0000000  1.0460000  1
   3230   3229   3238   3247     1  0.0000000  0.0000000  3
   3230   3229   3238   3239     1  0.0000000  0.6508444  3
   3230   3229   3238   3240     1  0.0000000  0.6508444  3
   3231   3229   3238   3247     1  0.0000000  1.0460000  1
   3231   3229   3238   3247     1  0.0000000  0.0000000  3
   3231   3229   3238   3239     1  0.0000000  0.6508444  3
   3231   3229   3238   3240     1  0.0000000  0.6508444  3
   3233   3232   3244   6753     1  0.0000000  1.0460000  1
   3233   3232   3244   6753     1  0.0000000  0.0000000  3
   3233   3232   3244   3245     1  0.0000000  0.6508444  3
   3233   3232   3244   3246     1  0.0000000  0.6508444  3
   3234   3232   3244   6753     1  0.0000000  1.0460000  1
   3234   3232   3244   6753     1  0.0000000  0.0000000  3
   3234   3232   3244   3245     1  0.0000000  0.6508444  3
   3234   3232   3244   3246     1  0.0000000  0.6508444  3
   3236   3235   3241   6722     1  0.0000000  1.0460000  1
   3236   3235   3241   6722     1  0.0000000  0.0000000  3
   3236   3235   3241   3242     1  0.0000000  0.6508444  3
   3236   3235   3241   3243     1  0.0000000  0.6508444  3
   3237   3235   3241   6722     1  0.0000000  1.0460000  1
   3237   3235   3241   6722     1  0.0000000  0.0000000  3
   3237   3235   3241   3242     1  0.0000000  0.6508444  3
   3237   3235   3241   3243     1  0.0000000  0.6508444  3
   3241   6722   6692   6693     1  0.0000000  1.6038667  3
   3241   6722   6692   6694     1  0.0000000  1.6038667  3
   3242   3241   6722   6692     1  0.0000000  1.6038667  3
   3243   3241   6722   6692     1  0.0000000  1.6038667  3
   3244   6753   6723   6724     1  0.0000000  1.6038667  3
   3244   6753   6723   6725     1  0.0000000  1.6038667  3
   3245   3244   6753   6723     1  0.0000000  1.6038667  3
   3246   3244   6753   6723     1  0.0000000  1.6038667  3
   3248   3249   3261   3262     1  0.0000000  0.6508444  3
   3248   3249   3261   3263     1  0.0000000  0.6508444  3
   3248   3252   3264   3265     1  0.0000000  0.6508444  3
   3248   3252   3264   3266     1  0.0000000  0.6508444  3
   3248   3255   3258   3259     1  0.0000000  0.6508444  3
   3248   3255   3258   3260     1  0.0000000  0.6508444  3
   3249   3248   3252   3253     1  0.0000000  1.2552000  3
   3249   3248   3252   3254     1  0.0000000  1.2552000  3
   3249   3248   3255   3256     1  0.0000000  1.2552000  3
   3249   3248   3255   3257     1  0.0000000  1.2552000  3
   3249   3261   3273   3274     1  0.0000000  0.6508444  3
   3249   3261   3273   3275     1  0.0000000  0.6508444  3
   3250   3249   3248   3252     1  0.0000000  1.2552000  3
   3250   3249   3248   3255     1  0.0000000  1.2552000  3
   3250   3249   3261   3273     1  0.0000000  0.6508444  3
   3250   3249   3261   3262     1  0.0000000  0.6508444  3
   3250   3249   3261   3263     1  0.0000000  0.6508444  3
   3251   3249   3248   3252     1  0.0000000  1.2552000  3
   3251   3249   3248   3255     1  0.0000000  1.2552000  3
   3251   3249   3261   3273     1  0.0000000  0.6508444  3
   3251   3249   3261   3262     1  0.0000000  0.6508444  3
   3251   3249   3261   3263     1  0.0000000  0.6508444  3
   3252   3248   3255   3256     1  0.0000000  1.2552000  3
   3252   3248   3255   3257     1  0.0000000  1.2552000  3
   3252   3264   3270   3271     1  0.0000000  0.6508444  3
   3252   3264   3270   3272     1  0.0000000  0.6508444  3
   3253   3252   3248   3255     1  0.0000000  1.2552000  3
   3253   3252   3264   3270     1  0.0000000  0.6508444  3
   3253   3252   3264   3265     1  0.0000000  0.6508444  3
   3253   3252   3264   3266     1  0.0000000  0.6508444  3
   3254   3252   3248   3255     1  0.0000000  1.2552000  3
   3254   3252   3264   3270     1  0.0000000  0.6508444  3
   3254   3252   3264   3265     1  0.0000000  0.6508444  3
   3254   3252   3264   3266     1  0.0000000  0.6508444  3
   3255   3258   3267   3268     1  0.0000000  0.6508444  3
   3255   3258   3267   3269     1  0.0000000  0.6508444  3
   3256   3255   3258   3267     1  0.0000000  0.6508444  3
   3256   3255   3258   3259     1  0.0000000  0.6508444  3
   3256   3255   3258   3260     1  0.0000000  0.6508444  3
   3257   3255   3258   3267     1  0.0000000  0.6508444  3
   3257   3255   3258   3259     1  0.0000000  0.6508444  3
   3257   3255   3258   3260     1  0.0000000  0.6508444  3
   3259   3258   3267   3276     1  0.0000000  1.0460000  1
   3259   3258   3267   3276     1  0.0000000  0.0000000  3
   3259   3258   3267   3268     1  0.0000000  0.6508444  3
   3259   3258   3267   3269     1  0.0000000  0.6508444  3
   3260   3258   3267   3276     1  0.0000000  1.0460000  1
   3260   3258   3267   3276     1  0.0000000  0.0000000  3
   3260   3258   3267   3268     1  0.0000000  0.6508444  3
   3260   3258   3267   3269     1  0.0000000  0.6508444  3
   3262   3261   3273   6815     1  0.0000000  1.0460000  1
   3262   3261   3273   6815     1  0.0000000  0.0000000  3
   3262   3261   3273   3274     1  0.0000000  0.6508444  3
   3262   3261   3273   3275     1  0.0000000  0.6508444  3
   3263   3261   3273   6815     1  0.0000000  1.0460000  1
   3263   3261   3273   6815     1  0.0000000  0.0000000  3
   3263   3261   3273   3274     1  0.0000000  0.6508444  3
   3263   3261   3273   3275     1  0.0000000  0.6508444  3
   3265   3264   3270   6784     1  0.0000000  1.0460000  1
   3265   3264   3270   6784     1  0.0000000  0.0000000  3
   3265   3264   3270   3271     1  0.0000000  0.6508444  3
   3265   3264   3270   3272     1  0.0000000  0.6508444  3
   3266   3264   3270   6784     1  0.0000000  1.0460000  1
   3266   3264   3270   6784     1  0.0000000  0.0000000  3
   3266   3264   3270   3271     1  0.0000000  0.6508444  3
   3266   3264   3270   3272     1  0.0000000  0.6508444  3
   3270   6784   6754   6755     1  0.0000000  1.6038667  3
   3270   6784   6754   6756     1  0.0000000  1.6038667  3
   3271   3270   6784   6754     1  0.0000000  1.6038667  3
   3272   3270   6784   6754     1  0.0000000  1.6038667  3
   3273   6815   6785   6786     1  0.0000000  1.6038667  3
   3273   6815   6785   6787     1  0.0000000  1.6038667  3
   3274   3273   6815   6785     1  0.0000000  1.6038667  3
   3275   3273   6815   6785     1  0.0000000  1.6038667  3
   3277   3278   3290   3291     1  0.0000000  0.6508444  3
   3277   3278   3290   3292     1  0.0000000  0.6508444  3
   3277   3281   3293   3294     1  0.0000000  0.6508444  3
   3277   3281   3293   3295     1  0.0000000  0.6508444  3
   3277   3284   3287   3288     1  0.0000000  0.6508444  3
   3277   3284   3287   3289     1  0.0000000  0.6508444  3
   3278   3277   3281   3282     1  0.0000000  1.2552000  3
   3278   3277   3281   3283     1  0.0000000  1.2552000  3
   3278   3277   3284   3285     1  0.0000000  1.2552000  3
   3278   3277   3284   3286     1  0.0000000  1.2552000  3
   3278   3290   3302   3303     1  0.0000000  0.6508444  3
   3278   3290   3302   3304     1  0.0000000  0.6508444  3
   3279   3278   3277   3281     1  0.0000000  1.2552000  3
   3279   3278   3277   3284     1  0.0000000  1.2552000  3
   3279   3278   3290   3302     1  0.0000000  0.6508444  3
   3279   3278   3290   3291     1  0.0000000  0.6508444  3
   3279   3278   3290   3292     1  0.0000000  0.6508444  3
   3280   3278   3277   3281     1  0.0000000  1.2552000  3
   3280   3278   3277   3284     1  0.0000000  1.2552000  3
   3280   3278   3290   3302     1  0.0000000  0.6508444  3
   3280   3278   3290   3291     1  0.0000000  0.6508444  3
   3280   3278   3290   3292     1  0.0000000  0.6508444  3
   3281   3277   3284   3285     1  0.0000000  1.2552000  3
   3281   3277   3284   3286     1  0.0000000  1.2552000  3
   3281   3293   3299   3300     1  0.0000000  0.6508444  3
   3281   3293   3299   3301     1  0.0000000  0.6508444  3
   3282   3281   3277   3284     1  0.0000000  1.2552000  3
   3282   3281   3293   3299     1  0.0000000  0.6508444  3
   3282   3281   3293   3294     1  0.0000000  0.6508444  3
   3282   3281   3293   3295     1  0.0000000  0.6508444  3
   3283   3281   3277   3284     1  0.0000000  1.2552000  3
   3283   3281   3293   3299     1  0.0000000  0.6508444  3
   3283   3281   3293   3294     1  0.0000000  0.6508444  3
   3283   3281   3293   3295     1  0.0000000  0.6508444  3
   3284   3287   3296   3297     1  0.0000000  0.6508444  3
   3284   3287   3296   3298     1  0.0000000  0.6508444  3
   3285   3284   3287   3296     1  0.0000000  0.6508444  3
   3285   3284   3287   3288     1  0.0000000  0.6508444  3
   3285   3284   3287   3289     1  0.0000000  0.6508444  3
   3286   3284   3287   3296     1  0.0000000  0.6508444  3
   3286   3284   3287   3288     1  0.0000000  0.6508444  3
   3286   3284   3287   3289     1  0.0000000  0.6508444  3
   3288   3287   3296   3305     1  0.0000000  1.0460000  1
   3288   3287   3296   3305     1  0.0000000  0.0000000  3
   3288   3287   3296   3297     1  0.0000000  0.6508444  3
   3288   3287   3296   3298     1  0.0000000  0.6508444  3
   3289   3287   3296   3305     1  0.0000000  1.0460000  1
   3289   3287   3296   3305     1  0.0000000  0.0000000  3
   3289   3287   3296   3297     1  0.0000000  0.6508444  3
   3289   3287   3296   3298     1  0.0000000  0.6508444  3
   3291   3290   3302   6877     1  0.0000000  1.0460000  1
   3291   3290   3302   6877     1  0.0000000  0.0000000  3
   3291   3290   3302   3303     1  0.0000000  0.6508444  3
   3291   3290   3302   3304     1  0.0000000  0.6508444  3
   3292   3290   3302   6877     1  0.0000000  1.0460000  1
   3292   3290   3302   6877     1  0.0000000  0.0000000  3
   3292   3290   3302   3303     1  0.0000000  0.6508444  3
   3292   3290   3302   3304     1  0.0000000  0.6508444  3
   3294   3293   3299   6846     1  0.0000000  1.0460000  1
   3294   3293   3299   6846     1  0.0000000  0.0000000  3
   3294   3293   3299   3300     1  0.0000000  0.6508444  3
   3294   3293   3299   3301     1  0.0000000  0.6508444  3
   3295   3293   3299   6846     1  0.0000000  1.0460000  1
   3295   3293   3299   6846     1  0.0000000  0.0000000  3
   3295   3293   3299   3300     1  0.0000000  0.6508444  3
   3295   3293   3299   3301     1  0.0000000  0.6508444  3
   3299   6846   6816   6817     1  0.0000000  1.6038667  3
   3299   6846   6816   6818     1  0.0000000  1.6038667  3
   3300   3299   6846   6816     1  0.0000000  1.6038667  3
   3301   3299   6846   6816     1  0.0000000  1.6038667  3
   3302   6877   6847   6848     1  0.0000000  1.6038667  3
   3302   6877   6847   6849     1  0.0000000  1.6038667  3
   3303   3302   6877   6847     1  0.0000000  1.6038667  3
   3304   3302   6877   6847     1  0.0000000  1.6038667  3
   3306   3307   3319   3320     1  0.0000000  0.6508444  3
   3306   3307   3319   3321     1  0.0000000  0.6508444  3
   3306   3310   3322   3323     1  0.0000000  0.6508444  3
   3306   3310   3322   3324     1  0.0000000  0.6508444  3
   3306   3313   3316   3317     1  0.0000000  0.6508444  3
   3306   3313   3316   3318     1  0.0000000  0.6508444  3
   3307   3306   3310   3311     1  0.0000000  1.2552000  3
   3307   3306   3310   3312     1  0.0000000  1.2552000  3
   3307   3306   3313   3314     1  0.0000000  1.2552000  3
   3307   3306   3313   3315     1  0.0000000  1.2552000  3
   3307   3319   3331   3332     1  0.0000000  0.6508444  3
   3307   3319   3331   3333     1  0.0000000  0.6508444  3
   3308   3307   3306   3310     1  0.0000000  1.2552000  3
   3308   3307   3306   3313     1  0.0000000  1.2552000  3
   3308   3307   3319   3331     1  0.0000000  0.6508444  3
   3308   3307   3319   3320     1  0.0000000  0.6508444  3
   3308   3307   3319   3321     1  0.0000000  0.6508444  3
   3309   3307   3306   3310     1  0.0000000  1.2552000  3
   3309   3307   3306   3313     1  0.0000000  1.2552000  3
   3309   3307   3319   3331     1  0.0000000  0.6508444  3
   3309   3307   3319   3320     1  0.0000000  0.6508444  3
   3309   3307   3319   3321     1  0.0000000  0.6508444  3
   3310   3306   3313   3314     1  0.0000000  1.2552000  3
   3310   3306   3313   3315     1  0.0000000  1.2552000  3
   3310   3322   3328   3329     1  0.0000000  0.6508444  3
   3310   3322   3328   3330     1  0.0000000  0.6508444  3
   3311   3310   3306   3313     1  0.0000000  1.2552000  3
   3311   3310   3322   3328     1  0.0000000  0.6508444  3
   3311   3310   3322   3323     1  0.0000000  0.6508444  3
   3311   3310   3322   3324     1  0.0000000  0.6508444  3
   3312   3310   3306   3313     1  0.0000000  1.2552000  3
   3312   3310   3322   3328     1  0.0000000  0.6508444  3
   3312   3310   3322   3323     1  0.0000000  0.6508444  3
   3312   3310   3322   3324     1  0.0000000  0.6508444  3
   3313   3316   3325   3326     1  0.0000000  0.6508444  3
   3313   3316   3325   3327     1  0.0000000  0.6508444  3
   3314   3313   3316   3325     1  0.0000000  0.6508444  3
   3314   3313   3316   3317     1  0.0000000  0.6508444  3
   3314   3313   3316   3318     1  0.0000000  0.6508444  3
   3315   3313   3316   3325     1  0.0000000  0.6508444  3
   3315   3313   3316   3317     1  0.0000000  0.6508444  3
   3315   3313   3316   3318     1  0.0000000  0.6508444  3
   3317   3316   3325   3334     1  0.0000000  1.0460000  1
   3317   3316   3325   3334     1  0.0000000  0.0000000  3
   3317   3316   3325   3326     1  0.0000000  0.6508444  3
   3317   3316   3325   3327     1  0.0000000  0.6508444  3
   3318   3316   3325   3334     1  0.0000000  1.0460000  1
   3318   3316   3325   3334     1  0.0000000  0.0000000  3
   3318   3316   3325   3326     1  0.0000000  0.6508444  3
   3318   3316   3325   3327     1  0.0000000  0.6508444  3
   3320   3319   3331   6939     1  0.0000000  1.0460000  1
   3320   3319   3331   6939     1  0.0000000  0.0000000  3
   3320   3319   3331   3332     1  0.0000000  0.6508444  3
   3320   3319   3331   3333     1  0.0000000  0.6508444  3
   3321   3319   3331   6939     1  0.0000000  1.0460000  1
   3321   3319   3331   6939     1  0.0000000  0.0000000  3
   3321   3319   3331   3332     1  0.0000000  0.6508444  3
   3321   3319   3331   3333     1  0.0000000  0.6508444  3
   3323   3322   3328   6908     1  0.0000000  1.0460000  1
   3323   3322   3328   6908     1  0.0000000  0.0000000  3
   3323   3322   3328   3329     1  0.0000000  0.6508444  3
   3323   3322   3328   3330     1  0.0000000  0.6508444  3
   3324   3322   3328   6908     1  0.0000000  1.0460000  1
   3324   3322   3328   6908     1  0.0000000  0.0000000  3
   3324   3322   3328   3329     1  0.0000000  0.6508444  3
   3324   3322   3328   3330     1  0.0000000  0.6508444  3
   3328   6908   6878   6879     1  0.0000000  1.6038667  3
   3328   6908   6878   6880     1  0.0000000  1.6038667  3
   3329   3328   6908   6878     1  0.0000000  1.6038667  3
   3330   3328   6908   6878     1  0.0000000  1.6038667  3
   3331   6939   6909   6910     1  0.0000000  1.6038667  3
   3331   6939   6909   6911     1  0.0000000  1.6038667  3
   3332   3331   6939   6909     1  0.0000000  1.6038667  3
   3333   3331   6939   6909     1  0.0000000  1.6038667  3
   3335   3336   3348   3349     1  0.0000000  0.6508444  3
   3335   3336   3348   3350     1  0.0000000  0.6508444  3
   3335   3339   3351   3352     1  0.0000000  0.6508444  3
   3335   3339   3351   3353     1  0.0000000  0.6508444  3
   3335   3342   3345   3346     1  0.0000000  0.6508444  3
   3335   3342   3345   3347     1  0.0000000  0.6508444  3
   3336   3335   3339   3340     1  0.0000000  1.2552000  3
   3336   3335   3339   3341     1  0.0000000  1.2552000  3
   3336   3335   3342   3343     1  0.0000000  1.2552000  3
   3336   3335   3342   3344     1  0.0000000  1.2552000  3
   3336   3348   3360   3361     1  0.0000000  0.6508444  3
   3336   3348   3360   3362     1  0.0000000  0.6508444  3
   3337   3336   3335   3339     1  0.0000000  1.2552000  3
   3337   3336   3335   3342     1  0.0000000  1.2552000  3
   3337   3336   3348   3360     1  0.0000000  0.6508444  3
   3337   3336   3348   3349     1  0.0000000  0.6508444  3
   3337   3336   3348   3350     1  0.0000000  0.6508444  3
   3338   3336   3335   3339     1  0.0000000  1.2552000  3
   3338   3336   3335   3342     1  0.0000000  1.2552000  3
   3338   3336   3348   3360     1  0.0000000  0.6508444  3
   3338   3336   3348   3349     1  0.0000000  0.6508444  3
   3338   3336   3348   3350     1  0.0000000  0.6508444  3
   3339   3335   3342   3343     1  0.0000000  1.2552000  3
   3339   3335   3342   3344     1  0.0000000  1.2552000  3
   3339   3351   3357   3358     1  0.0000000  0.6508444  3
   3339   3351   3357   3359     1  0.0000000  0.6508444  3
   3340   3339   3335   3342     1  0.0000000  1.2552000  3
   3340   3339   3351   3357     1  0.0000000  0.6508444  3
   3340   3339   3351   3352     1  0.0000000  0.6508444  3
   3340   3339   3351   3353     1  0.0000000  0.6508444  3
   3341   3339   3335   3342     1  0.0000000  1.2552000  3
   3341   3339   3351   3357     1  0.0000000  0.6508444  3
   3341   3339   3351   3352     1  0.0000000  0.6508444  3
   3341   3339   3351   3353     1  0.0000000  0.6508444  3
   3342   3345   3354   3355     1  0.0000000  0.6508444  3
   3342   3345   3354   3356     1  0.0000000  0.6508444  3
   3343   3342   3345   3354     1  0.0000000  0.6508444  3
   3343   3342   3345   3346     1  0.0000000  0.6508444  3
   3343   3342   3345   3347     1  0.0000000  0.6508444  3
   3344   3342   3345   3354     1  0.0000000  0.6508444  3
   3344   3342   3345   3346     1  0.0000000  0.6508444  3
   3344   3342   3345   3347     1  0.0000000  0.6508444  3
   3346   3345   3354   3363     1  0.0000000  1.0460000  1
   3346   3345   3354   3363     1  0.0000000  0.0000000  3
   3346   3345   3354   3355     1  0.0000000  0.6508444  3
   3346   3345   3354   3356     1  0.0000000  0.6508444  3
   3347   3345   3354   3363     1  0.0000000  1.0460000  1
   3347   3345   3354   3363     1  0.0000000  0.0000000  3
   3347   3345   3354   3355     1  0.0000000  0.6508444  3
   3347   3345   3354   3356     1  0.0000000  0.6508444  3
   3349   3348   3360   7001     1  0.0000000  1.0460000  1
   3349   3348   3360   7001     1  0.0000000  0.0000000  3
   3349   3348   3360   3361     1  0.0000000  0.6508444  3
   3349   3348   3360   3362     1  0.0000000  0.6508444  3
   3350   3348   3360   7001     1  0.0000000  1.0460000  1
   3350   3348   3360   7001     1  0.0000000  0.0000000  3
   3350   3348   3360   3361     1  0.0000000  0.6508444  3
   3350   3348   3360   3362     1  0.0000000  0.6508444  3
   3352   3351   3357   6970     1  0.0000000  1.0460000  1
   3352   3351   3357   6970     1  0.0000000  0.0000000  3
   3352   3351   3357   3358     1  0.0000000  0.6508444  3
   3352   3351   3357   3359     1  0.0000000  0.6508444  3
   3353   3351   3357   6970     1  0.0000000  1.0460000  1
   3353   3351   3357   6970     1  0.0000000  0.0000000  3
   3353   3351   3357   3358     1  0.0000000  0.6508444  3
   3353   3351   3357   3359     1  0.0000000  0.6508444  3
   3357   6970   6940   6941     1  0.0000000  1.6038667  3
   3357   6970   6940   6942     1  0.0000000  1.6038667  3
   3358   3357   6970   6940     1  0.0000000  1.6038667  3
   3359   3357   6970   6940     1  0.0000000  1.6038667  3
   3360   7001   6971   6972     1  0.0000000  1.6038667  3
   3360   7001   6971   6973     1  0.0000000  1.6038667  3
   3361   3360   7001   6971     1  0.0000000  1.6038667  3
   3362   3360   7001   6971     1  0.0000000  1.6038667  3
   3364   3365   3377   3378     1  0.0000000  0.6508444  3
   3364   3365   3377   3379     1  0.0000000  0.6508444  3
   3364   3368   3380   3381     1  0.0000000  0.6508444  3
   3364   3368   3380   3382     1  0.0000000  0.6508444  3
   3364   3371   3374   3375     1  0.0000000  0.6508444  3
   3364   3371   3374   3376     1  0.0000000  0.6508444  3
   3365   3364   3368   3369     1  0.0000000  1.2552000  3
   3365   3364   3368   3370     1  0.0000000  1.2552000  3
   3365   3364   3371   3372     1  0.0000000  1.2552000  3
   3365   3364   3371   3373     1  0.0000000  1.2552000  3
   3365   3377   3389   3390     1  0.0000000  0.6508444  3
   3365   3377   3389   3391     1  0.0000000  0.6508444  3
   3366   3365   3364   3368     1  0.0000000  1.2552000  3
   3366   3365   3364   3371     1  0.0000000  1.2552000  3
   3366   3365   3377   3389     1  0.0000000  0.6508444  3
   3366   3365   3377   3378     1  0.0000000  0.6508444  3
   3366   3365   3377   3379     1  0.0000000  0.6508444  3
   3367   3365   3364   3368     1  0.0000000  1.2552000  3
   3367   3365   3364   3371     1  0.0000000  1.2552000  3
   3367   3365   3377   3389     1  0.0000000  0.6508444  3
   3367   3365   3377   3378     1  0.0000000  0.6508444  3
   3367   3365   3377   3379     1  0.0000000  0.6508444  3
   3368   3364   3371   3372     1  0.0000000  1.2552000  3
   3368   3364   3371   3373     1  0.0000000  1.2552000  3
   3368   3380   3386   3387     1  0.0000000  0.6508444  3
   3368   3380   3386   3388     1  0.0000000  0.6508444  3
   3369   3368   3364   3371     1  0.0000000  1.2552000  3
   3369   3368   3380   3386     1  0.0000000  0.6508444  3
   3369   3368   3380   3381     1  0.0000000  0.6508444  3
   3369   3368   3380   3382     1  0.0000000  0.6508444  3
   3370   3368   3364   3371     1  0.0000000  1.2552000  3
   3370   3368   3380   3386     1  0.0000000  0.6508444  3
   3370   3368   3380   3381     1  0.0000000  0.6508444  3
   3370   3368   3380   3382     1  0.0000000  0.6508444  3
   3371   3374   3383   3384     1  0.0000000  0.6508444  3
   3371   3374   3383   3385     1  0.0000000  0.6508444  3
   3372   3371   3374   3383     1  0.0000000  0.6508444  3
   3372   3371   3374   3375     1  0.0000000  0.6508444  3
   3372   3371   3374   3376     1  0.0000000  0.6508444  3
   3373   3371   3374   3383     1  0.0000000  0.6508444  3
   3373   3371   3374   3375     1  0.0000000  0.6508444  3
   3373   3371   3374   3376     1  0.0000000  0.6508444  3
   3375   3374   3383   3392     1  0.0000000  1.0460000  1
   3375   3374   3383   3392     1  0.0000000  0.0000000  3
   3375   3374   3383   3384     1  0.0000000  0.6508444  3
   3375   3374   3383   3385     1  0.0000000  0.6508444  3
   3376   3374   3383   3392     1  0.0000000  1.0460000  1
   3376   3374   3383   3392     1  0.0000000  0.0000000  3
   3376   3374   3383   3384     1  0.0000000  0.6508444  3
   3376   3374   3383   3385     1  0.0000000  0.6508444  3
   3378   3377   3389   7063     1  0.0000000  1.0460000  1
   3378   3377   3389   7063     1  0.0000000  0.0000000  3
   3378   3377   3389   3390     1  0.0000000  0.6508444  3
   3378   3377   3389   3391     1  0.0000000  0.6508444  3
   3379   3377   3389   7063     1  0.0000000  1.0460000  1
   3379   3377   3389   7063     1  0.0000000  0.0000000  3
   3379   3377   3389   3390     1  0.0000000  0.6508444  3
   3379   3377   3389   3391     1  0.0000000  0.6508444  3
   3381   3380   3386   7032     1  0.0000000  1.0460000  1
   3381   3380   3386   7032     1  0.0000000  0.0000000  3
   3381   3380   3386   3387     1  0.0000000  0.6508444  3
   3381   3380   3386   3388     1  0.0000000  0.6508444  3
   3382   3380   3386   7032     1  0.0000000  1.0460000  1
   3382   3380   3386   7032     1  0.0000000  0.0000000  3
   3382   3380   3386   3387     1  0.0000000  0.6508444  3
   3382   3380   3386   3388     1  0.0000000  0.6508444  3
   3386   7032   7002   7003     1  0.0000000  1.6038667  3
   3386   7032   7002   7004     1  0.0000000  1.6038667  3
   3387   3386   7032   7002     1  0.0000000  1.6038667  3
   3388   3386   7032   7002     1  0.0000000  1.6038667  3
   3389   7063   7033   7034     1  0.0000000  1.6038667  3
   3389   7063   7033   7035     1  0.0000000  1.6038667  3
   3390   3389   7063   7033     1  0.0000000  1.6038667  3
   3391   3389   7063   7033     1  0.0000000  1.6038667  3
   3393   3394   3406   3407     1  0.0000000  0.6508444  3
   3393   3394   3406   3408     1  0.0000000  0.6508444  3
   3393   3397   3409   3410     1  0.0000000  0.6508444  3
   3393   3397   3409   3411     1  0.0000000  0.6508444  3
   3393   3400   3403   3404     1  0.0000000  0.6508444  3
   3393   3400   3403   3405     1  0.0000000  0.6508444  3
   3394   3393   3397   3398     1  0.0000000  1.2552000  3
   3394   3393   3397   3399     1  0.0000000  1.2552000  3
   3394   3393   3400   3401     1  0.0000000  1.2552000  3
   3394   3393   3400   3402     1  0.0000000  1.2552000  3
   3394   3406   3418   3419     1  0.0000000  0.6508444  3
   3394   3406   3418   3420     1  0.0000000  0.6508444  3
   3395   3394   3393   3397     1  0.0000000  1.2552000  3
   3395   3394   3393   3400     1  0.0000000  1.2552000  3
   3395   3394   3406   3418     1  0.0000000  0.6508444  3
   3395   3394   3406   3407     1  0.0000000  0.6508444  3
   3395   3394   3406   3408     1  0.0000000  0.6508444  3
   3396   3394   3393   3397     1  0.0000000  1.2552000  3
   3396   3394   3393   3400     1  0.0000000  1.2552000  3
   3396   3394   3406   3418     1  0.0000000  0.6508444  3
   3396   3394   3406   3407     1  0.0000000  0.6508444  3
   3396   3394   3406   3408     1  0.0000000  0.6508444  3
   3397   3393   3400   3401     1  0.0000000  1.2552000  3
   3397   3393   3400   3402     1  0.0000000  1.2552000  3
   3397   3409   3415   3416     1  0.0000000  0.6508444  3
   3397   3409   3415   3417     1  0.0000000  0.6508444  3
   3398   3397   3393   3400     1  0.0000000  1.2552000  3
   3398   3397   3409   3415     1  0.0000000  0.6508444  3
   3398   3397   3409   3410     1  0.0000000  0.6508444  3
   3398   3397   3409   3411     1  0.0000000  0.6508444  3
   3399   3397   3393   3400     1  0.0000000  1.2552000  3
   3399   3397   3409   3415     1  0.0000000  0.6508444  3
   3399   3397   3409   3410     1  0.0000000  0.6508444  3
   3399   3397   3409   3411     1  0.0000000  0.6508444  3
   3400   3403   3412   3413     1  0.0000000  0.6508444  3
   3400   3403   3412   3414     1  0.0000000  0.6508444  3
   3401   3400   3403   3412     1  0.0000000  0.6508444  3
   3401   3400   3403   3404     1  0.0000000  0.6508444  3
   3401   3400   3403   3405     1  0.0000000  0.6508444  3
   3402   3400   3403   3412     1  0.0000000  0.6508444  3
   3402   3400   3403   3404     1  0.0000000  0.6508444  3
   3402   3400   3403   3405     1  0.0000000  0.6508444  3
   3404   3403   3412   3421     1  0.0000000  1.0460000  1
   3404   3403   3412   3421     1  0.0000000  0.0000000  3
   3404   3403   3412   3413     1  0.0000000  0.6508444  3
   3404   3403   3412   3414     1  0.0000000  0.6508444  3
   3405   3403   3412   3421     1  0.0000000  1.0460000  1
   3405   3403   3412   3421     1  0.0000000  0.0000000  3
   3405   3403   3412   3413     1  0.0000000  0.6508444  3
   3405   3403   3412   3414     1  0.0000000  0.6508444  3
   3407   3406   3418   7125     1  0.0000000  1.0460000  1
   3407   3406   3418   7125     1  0.0000000  0.0000000  3
   3407   3406   3418   3419     1  0.0000000  0.6508444  3
   3407   3406   3418   3420     1  0.0000000  0.6508444  3
   3408   3406   3418   7125     1  0.0000000  1.0460000  1
   3408   3406   3418   7125     1  0.0000000  0.0000000  3
   3408   3406   3418   3419     1  0.0000000  0.6508444  3
   3408   3406   3418   3420     1  0.0000000  0.6508444  3
   3410   3409   3415   7094     1  0.0000000  1.0460000  1
   3410   3409   3415   7094     1  0.0000000  0.0000000  3
   3410   3409   3415   3416     1  0.0000000  0.6508444  3
   3410   3409   3415   3417     1  0.0000000  0.6508444  3
   3411   3409   3415   7094     1  0.0000000  1.0460000  1
   3411   3409   3415   7094     1  0.0000000  0.0000000  3
   3411   3409   3415   3416     1  0.0000000  0.6508444  3
   3411   3409   3415   3417     1  0.0000000  0.6508444  3
   3415   7094   7064   7065     1  0.0000000  1.6038667  3
   3415   7094   7064   7066     1  0.0000000  1.6038667  3
   3416   3415   7094   7064     1  0.0000000  1.6038667  3
   3417   3415   7094   7064     1  0.0000000  1.6038667  3
   3418   7125   7095   7096     1  0.0000000  1.6038667  3
   3418   7125   7095   7097     1  0.0000000  1.6038667  3
   3419   3418   7125   7095     1  0.0000000  1.6038667  3
   3420   3418   7125   7095     1  0.0000000  1.6038667  3
   3422   3423   3435   3436     1  0.0000000  0.6508444  3
   3422   3423   3435   3437     1  0.0000000  0.6508444  3
   3422   3426   3438   3439     1  0.0000000  0.6508444  3
   3422   3426   3438   3440     1  0.0000000  0.6508444  3
   3422   3429   3432   3433     1  0.0000000  0.6508444  3
   3422   3429   3432   3434     1  0.0000000  0.6508444  3
   3423   3422   3426   3427     1  0.0000000  1.2552000  3
   3423   3422   3426   3428     1  0.0000000  1.2552000  3
   3423   3422   3429   3430     1  0.0000000  1.2552000  3
   3423   3422   3429   3431     1  0.0000000  1.2552000  3
   3423   3435   3447   3448     1  0.0000000  0.6508444  3
   3423   3435   3447   3449     1  0.0000000  0.6508444  3
   3424   3423   3422   3426     1  0.0000000  1.2552000  3
   3424   3423   3422   3429     1  0.0000000  1.2552000  3
   3424   3423   3435   3447     1  0.0000000  0.6508444  3
   3424   3423   3435   3436     1  0.0000000  0.6508444  3
   3424   3423   3435   3437     1  0.0000000  0.6508444  3
   3425   3423   3422   3426     1  0.0000000  1.2552000  3
   3425   3423   3422   3429     1  0.0000000  1.2552000  3
   3425   3423   3435   3447     1  0.0000000  0.6508444  3
   3425   3423   3435   3436     1  0.0000000  0.6508444  3
   3425   3423   3435   3437     1  0.0000000  0.6508444  3
   3426   3422   3429   3430     1  0.0000000  1.2552000  3
   3426   3422   3429   3431     1  0.0000000  1.2552000  3
   3426   3438   3444   3445     1  0.0000000  0.6508444  3
   3426   3438   3444   3446     1  0.0000000  0.6508444  3
   3427   3426   3422   3429     1  0.0000000  1.2552000  3
   3427   3426   3438   3444     1  0.0000000  0.6508444  3
   3427   3426   3438   3439     1  0.0000000  0.6508444  3
   3427   3426   3438   3440     1  0.0000000  0.6508444  3
   3428   3426   3422   3429     1  0.0000000  1.2552000  3
   3428   3426   3438   3444     1  0.0000000  0.6508444  3
   3428   3426   3438   3439     1  0.0000000  0.6508444  3
   3428   3426   3438   3440     1  0.0000000  0.6508444  3
   3429   3432   3441   3442     1  0.0000000  0.6508444  3
   3429   3432   3441   3443     1  0.0000000  0.6508444  3
   3430   3429   3432   3441     1  0.0000000  0.6508444  3
   3430   3429   3432   3433     1  0.0000000  0.6508444  3
   3430   3429   3432   3434     1  0.0000000  0.6508444  3
   3431   3429   3432   3441     1  0.0000000  0.6508444  3
   3431   3429   3432   3433     1  0.0000000  0.6508444  3
   3431   3429   3432   3434     1  0.0000000  0.6508444  3
   3433   3432   3441   3450     1  0.0000000  1.0460000  1
   3433   3432   3441   3450     1  0.0000000  0.0000000  3
   3433   3432   3441   3442     1  0.0000000  0.6508444  3
   3433   3432   3441   3443     1  0.0000000  0.6508444  3
   3434   3432   3441   3450     1  0.0000000  1.0460000  1
   3434   3432   3441   3450     1  0.0000000  0.0000000  3
   3434   3432   3441   3442     1  0.0000000  0.6508444  3
   3434   3432   3441   3443     1  0.0000000  0.6508444  3
   3436   3435   3447   7187     1  0.0000000  1.0460000  1
   3436   3435   3447   7187     1  0.0000000  0.0000000  3
   3436   3435   3447   3448     1  0.0000000  0.6508444  3
   3436   3435   3447   3449     1  0.0000000  0.6508444  3
   3437   3435   3447   7187     1  0.0000000  1.0460000  1
   3437   3435   3447   7187     1  0.0000000  0.0000000  3
   3437   3435   3447   3448     1  0.0000000  0.6508444  3
   3437   3435   3447   3449     1  0.0000000  0.6508444  3
   3439   3438   3444   7156     1  0.0000000  1.0460000  1
   3439   3438   3444   7156     1  0.0000000  0.0000000  3
   3439   3438   3444   3445     1  0.0000000  0.6508444  3
   3439   3438   3444   3446     1  0.0000000  0.6508444  3
   3440   3438   3444   7156     1  0.0000000  1.0460000  1
   3440   3438   3444   7156     1  0.0000000  0.0000000  3
   3440   3438   3444   3445     1  0.0000000  0.6508444  3
   3440   3438   3444   3446     1  0.0000000  0.6508444  3
   3444   7156   7126   7127     1  0.0000000  1.6038667  3
   3444   7156   7126   7128     1  0.0000000  1.6038667  3
   3445   3444   7156   7126     1  0.0000000  1.6038667  3
   3446   3444   7156   7126     1  0.0000000  1.6038667  3
   3447   7187   7157   7158     1  0.0000000  1.6038667  3
   3447   7187   7157   7159     1  0.0000000  1.6038667  3
   3448   3447   7187   7157     1  0.0000000  1.6038667  3
   3449   3447   7187   7157     1  0.0000000  1.6038667  3
   3451   3452   3464   3465     1  0.0000000  0.6508444  3
   3451   3452   3464   3466     1  0.0000000  0.6508444  3
   3451   3455   3467   3468     1  0.0000000  0.6508444  3
   3451   3455   3467   3469     1  0.0000000  0.6508444  3
   3451   3458   3461   3462     1  0.0000000  0.6508444  3
   3451   3458   3461   3463     1  0.0000000  0.6508444  3
   3452   3451   3455   3456     1  0.0000000  1.2552000  3
   3452   3451   3455   3457     1  0.0000000  1.2552000  3
   3452   3451   3458   3459     1  0.0000000  1.2552000  3
   3452   3451   3458   3460     1  0.0000000  1.2552000  3
   3452   3464   3476   3477     1  0.0000000  0.6508444  3
   3452   3464   3476   3478     1  0.0000000  0.6508444  3
   3453   3452   3451   3455     1  0.0000000  1.2552000  3
   3453   3452   3451   3458     1  0.0000000  1.2552000  3
   3453   3452   3464   3476     1  0.0000000  0.6508444  3
   3453   3452   3464   3465     1  0.0000000  0.6508444  3
   3453   3452   3464   3466     1  0.0000000  0.6508444  3
   3454   3452   3451   3455     1  0.0000000  1.2552000  3
   3454   3452   3451   3458     1  0.0000000  1.2552000  3
   3454   3452   3464   3476     1  0.0000000  0.6508444  3
   3454   3452   3464   3465     1  0.0000000  0.6508444  3
   3454   3452   3464   3466     1  0.0000000  0.6508444  3
   3455   3451   3458   3459     1  0.0000000  1.2552000  3
   3455   3451   3458   3460     1  0.0000000  1.2552000  3
   3455   3467   3473   3474     1  0.0000000  0.6508444  3
   3455   3467   3473   3475     1  0.0000000  0.6508444  3
   3456   3455   3451   3458     1  0.0000000  1.2552000  3
   3456   3455   3467   3473     1  0.0000000  0.6508444  3
   3456   3455   3467   3468     1  0.0000000  0.6508444  3
   3456   3455   3467   3469     1  0.0000000  0.6508444  3
   3457   3455   3451   3458     1  0.0000000  1.2552000  3
   3457   3455   3467   3473     1  0.0000000  0.6508444  3
   3457   3455   3467   3468     1  0.0000000  0.6508444  3
   3457   3455   3467   3469     1  0.0000000  0.6508444  3
   3458   3461   3470   3471     1  0.0000000  0.6508444  3
   3458   3461   3470   3472     1  0.0000000  0.6508444  3
   3459   3458   3461   3470     1  0.0000000  0.6508444  3
   3459   3458   3461   3462     1  0.0000000  0.6508444  3
   3459   3458   3461   3463     1  0.0000000  0.6508444  3
   3460   3458   3461   3470     1  0.0000000  0.6508444  3
   3460   3458   3461   3462     1  0.0000000  0.6508444  3
   3460   3458   3461   3463     1  0.0000000  0.6508444  3
   3462   3461   3470   3479     1  0.0000000  1.0460000  1
   3462   3461   3470   3479     1  0.0000000  0.0000000  3
   3462   3461   3470   3471     1  0.0000000  0.6508444  3
   3462   3461   3470   3472     1  0.0000000  0.6508444  3
   3463   3461   3470   3479     1  0.0000000  1.0460000  1
   3463   3461   3470   3479     1  0.0000000  0.0000000  3
   3463   3461   3470   3471     1  0.0000000  0.6508444  3
   3463   3461   3470   3472     1  0.0000000  0.6508444  3
   3465   3464   3476   7249     1  0.0000000  1.0460000  1
   3465   3464   3476   7249     1  0.0000000  0.0000000  3
   3465   3464   3476   3477     1  0.0000000  0.6508444  3
   3465   3464   3476   3478     1  0.0000000  0.6508444  3
   3466   3464   3476   7249     1  0.0000000  1.0460000  1
   3466   3464   3476   7249     1  0.0000000  0.0000000  3
   3466   3464   3476   3477     1  0.0000000  0.6508444  3
   3466   3464   3476   3478     1  0.0000000  0.6508444  3
   3468   3467   3473   7218     1  0.0000000  1.0460000  1
   3468   3467   3473   7218     1  0.0000000  0.0000000  3
   3468   3467   3473   3474     1  0.0000000  0.6508444  3
   3468   3467   3473   3475     1  0.0000000  0.6508444  3
   3469   3467   3473   7218     1  0.0000000  1.0460000  1
   3469   3467   3473   7218     1  0.0000000  0.0000000  3
   3469   3467   3473   3474     1  0.0000000  0.6508444  3
   3469   3467   3473   3475     1  0.0000000  0.6508444  3
   3473   7218   7188   7189     1  0.0000000  1.6038667  3
   3473   7218   7188   7190     1  0.0000000  1.6038667  3
   3474   3473   7218   7188     1  0.0000000  1.6038667  3
   3475   3473   7218   7188     1  0.0000000  1.6038667  3
   3476   7249   7219   7220     1  0.0000000  1.6038667  3
   3476   7249   7219   7221     1  0.0000000  1.6038667  3
   3477   3476   7249   7219     1  0.0000000  1.6038667  3
   3478   3476   7249   7219     1  0.0000000  1.6038667  3
   3480   3481   3493   3494     1  0.0000000  0.6508444  3
   3480   3481   3493   3495     1  0.0000000  0.6508444  3
   3480   3484   3496   3497     1  0.0000000  0.6508444  3
   3480   3484   3496   3498     1  0.0000000  0.6508444  3
   3480   3487   3490   3491     1  0.0000000  0.6508444  3
   3480   3487   3490   3492     1  0.0000000  0.6508444  3
   3481   3480   3484   3485     1  0.0000000  1.2552000  3
   3481   3480   3484   3486     1  0.0000000  1.2552000  3
   3481   3480   3487   3488     1  0.0000000  1.2552000  3
   3481   3480   3487   3489     1  0.0000000  1.2552000  3
   3481   3493   3505   3506     1  0.0000000  0.6508444  3
   3481   3493   3505   3507     1  0.0000000  0.6508444  3
   3482   3481   3480   3484     1  0.0000000  1.2552000  3
   3482   3481   3480   3487     1  0.0000000  1.2552000  3
   3482   3481   3493   3505     1  0.0000000  0.6508444  3
   3482   3481   3493   3494     1  0.0000000  0.6508444  3
   3482   3481   3493   3495     1  0.0000000  0.6508444  3
   3483   3481   3480   3484     1  0.0000000  1.2552000  3
   3483   3481   3480   3487     1  0.0000000  1.2552000  3
   3483   3481   3493   3505     1  0.0000000  0.6508444  3
   3483   3481   3493   3494     1  0.0000000  0.6508444  3
   3483   3481   3493   3495     1  0.0000000  0.6508444  3
   3484   3480   3487   3488     1  0.0000000  1.2552000  3
   3484   3480   3487   3489     1  0.0000000  1.2552000  3
   3484   3496   3502   3503     1  0.0000000  0.6508444  3
   3484   3496   3502   3504     1  0.0000000  0.6508444  3
   3485   3484   3480   3487     1  0.0000000  1.2552000  3
   3485   3484   3496   3502     1  0.0000000  0.6508444  3
   3485   3484   3496   3497     1  0.0000000  0.6508444  3
   3485   3484   3496   3498     1  0.0000000  0.6508444  3
   3486   3484   3480   3487     1  0.0000000  1.2552000  3
   3486   3484   3496   3502     1  0.0000000  0.6508444  3
   3486   3484   3496   3497     1  0.0000000  0.6508444  3
   3486   3484   3496   3498     1  0.0000000  0.6508444  3
   3487   3490   3499   3500     1  0.0000000  0.6508444  3
   3487   3490   3499   3501     1  0.0000000  0.6508444  3
   3488   3487   3490   3499     1  0.0000000  0.6508444  3
   3488   3487   3490   3491     1  0.0000000  0.6508444  3
   3488   3487   3490   3492     1  0.0000000  0.6508444  3
   3489   3487   3490   3499     1  0.0000000  0.6508444  3
   3489   3487   3490   3491     1  0.0000000  0.6508444  3
   3489   3487   3490   3492     1  0.0000000  0.6508444  3
   3491   3490   3499   3508     1  0.0000000  1.0460000  1
   3491   3490   3499   3508     1  0.0000000  0.0000000  3
   3491   3490   3499   3500     1  0.0000000  0.6508444  3
   3491   3490   3499   3501     1  0.0000000  0.6508444  3
   3492   3490   3499   3508     1  0.0000000  1.0460000  1
   3492   3490   3499   3508     1  0.0000000  0.0000000  3
   3492   3490   3499   3500     1  0.0000000  0.6508444  3
   3492   3490   3499   3501     1  0.0000000  0.6508444  3
   3494   3493   3505   7311     1  0.0000000  1.0460000  1
   3494   3493   3505   7311     1  0.0000000  0.0000000  3
   3494   3493   3505   3506     1  0.0000000  0.6508444  3
   3494   3493   3505   3507     1  0.0000000  0.6508444  3
   3495   3493   3505   7311     1  0.0000000  1.0460000  1
   3495   3493   3505   7311     1  0.0000000  0.0000000  3
   3495   3493   3505   3506     1  0.0000000  0.6508444  3
   3495   3493   3505   3507     1  0.0000000  0.6508444  3
   3497   3496   3502   7280     1  0.0000000  1.0460000  1
   3497   3496   3502   7280     1  0.0000000  0.0000000  3
   3497   3496   3502   3503     1  0.0000000  0.6508444  3
   3497   3496   3502   3504     1  0.0000000  0.6508444  3
   3498   3496   3502   7280     1  0.0000000  1.0460000  1
   3498   3496   3502   7280     1  0.0000000  0.0000000  3
   3498   3496   3502   3503     1  0.0000000  0.6508444  3
   3498   3496   3502   3504     1  0.0000000  0.6508444  3
   3502   7280   7250   7251     1  0.0000000  1.6038667  3
   3502   7280   7250   7252     1  0.0000000  1.6038667  3
   3503   3502   7280   7250     1  0.0000000  1.6038667  3
   3504   3502   7280   7250     1  0.0000000  1.6038667  3
   3505   7311   7281   7282     1  0.0000000  1.6038667  3
   3505   7311   7281   7283     1  0.0000000  1.6038667  3
   3506   3505   7311   7281     1  0.0000000  1.6038667  3
   3507   3505   7311   7281     1  0.0000000  1.6038667  3
   3509   3510   3522   3523     1  0.0000000  0.6508444  3
   3509   3510   3522   3524     1  0.0000000  0.6508444  3
   3509   3513   3525   3526     1  0.0000000  0.6508444  3
   3509   3513   3525   3527     1  0.0000000  0.6508444  3
   3509   3516   3519   3520     1  0.0000000  0.6508444  3
   3509   3516   3519   3521     1  0.0000000  0.6508444  3
   3510   3509   3513   3514     1  0.0000000  1.2552000  3
   3510   3509   3513   3515     1  0.0000000  1.2552000  3
   3510   3509   3516   3517     1  0.0000000  1.2552000  3
   3510   3509   3516   3518     1  0.0000000  1.2552000  3
   3510   3522   3534   3535     1  0.0000000  0.6508444  3
   3510   3522   3534   3536     1  0.0000000  0.6508444  3
   3511   3510   3509   3513     1  0.0000000  1.2552000  3
   3511   3510   3509   3516     1  0.0000000  1.2552000  3
   3511   3510   3522   3534     1  0.0000000  0.6508444  3
   3511   3510   3522   3523     1  0.0000000  0.6508444  3
   3511   3510   3522   3524     1  0.0000000  0.6508444  3
   3512   3510   3509   3513     1  0.0000000  1.2552000  3
   3512   3510   3509   3516     1  0.0000000  1.2552000  3
   3512   3510   3522   3534     1  0.0000000  0.6508444  3
   3512   3510   3522   3523     1  0.0000000  0.6508444  3
   3512   3510   3522   3524     1  0.0000000  0.6508444  3
   3513   3509   3516   3517     1  0.0000000  1.2552000  3
   3513   3509   3516   3518     1  0.0000000  1.2552000  3
   3513   3525   3531   3532     1  0.0000000  0.6508444  3
   3513   3525   3531   3533     1  0.0000000  0.6508444  3
   3514   3513   3509   3516     1  0.0000000  1.2552000  3
   3514   3513   3525   3531     1  0.0000000  0.6508444  3
   3514   3513   3525   3526     1  0.0000000  0.6508444  3
   3514   3513   3525   3527     1  0.0000000  0.6508444  3
   3515   3513   3509   3516     1  0.0000000  1.2552000  3
   3515   3513   3525   3531     1  0.0000000  0.6508444  3
   3515   3513   3525   3526     1  0.0000000  0.6508444  3
   3515   3513   3525   3527     1  0.0000000  0.6508444  3
   3516   3519   3528   3529     1  0.0000000  0.6508444  3
   3516   3519   3528   3530     1  0.0000000  0.6508444  3
   3517   3516   3519   3528     1  0.0000000  0.6508444  3
   3517   3516   3519   3520     1  0.0000000  0.6508444  3
   3517   3516   3519   3521     1  0.0000000  0.6508444  3
   3518   3516   3519   3528     1  0.0000000  0.6508444  3
   3518   3516   3519   3520     1  0.0000000  0.6508444  3
   3518   3516   3519   3521     1  0.0000000  0.6508444  3
   3520   3519   3528   3537     1  0.0000000  1.0460000  1
   3520   3519   3528   3537     1  0.0000000  0.0000000  3
   3520   3519   3528   3529     1  0.0000000  0.6508444  3
   3520   3519   3528   3530     1  0.0000000  0.6508444  3
   3521   3519   3528   3537     1  0.0000000  1.0460000  1
   3521   3519   3528   3537     1  0.0000000  0.0000000  3
   3521   3519   3528   3529     1  0.0000000  0.6508444  3
   3521   3519   3528   3530     1  0.0000000  0.6508444  3
   3523   3522   3534   7373     1  0.0000000  1.0460000  1
   3523   3522   3534   7373     1  0.0000000  0.0000000  3
   3523   3522   3534   3535     1  0.0000000  0.6508444  3
   3523   3522   3534   3536     1  0.0000000  0.6508444  3
   3524   3522   3534   7373     1  0.0000000  1.0460000  1
   3524   3522   3534   7373     1  0.0000000  0.0000000  3
   3524   3522   3534   3535     1  0.0000000  0.6508444  3
   3524   3522   3534   3536     1  0.0000000  0.6508444  3
   3526   3525   3531   7342     1  0.0000000  1.0460000  1
   3526   3525   3531   7342     1  0.0000000  0.0000000  3
   3526   3525   3531   3532     1  0.0000000  0.6508444  3
   3526   3525   3531   3533     1  0.0000000  0.6508444  3
   3527   3525   3531   7342     1  0.0000000  1.0460000  1
   3527   3525   3531   7342     1  0.0000000  0.0000000  3
   3527   3525   3531   3532     1  0.0000000  0.6508444  3
   3527   3525   3531   3533     1  0.0000000  0.6508444  3
   3531   7342   7312   7313     1  0.0000000  1.6038667  3
   3531   7342   7312   7314     1  0.0000000  1.6038667  3
   3532   3531   7342   7312     1  0.0000000  1.6038667  3
   3533   3531   7342   7312     1  0.0000000  1.6038667  3
   3534   7373   7343   7344     1  0.0000000  1.6038667  3
   3534   7373   7343   7345     1  0.0000000  1.6038667  3
   3535   3534   7373   7343     1  0.0000000  1.6038667  3
   3536   3534   7373   7343     1  0.0000000  1.6038667  3
   3538   3539   3551   3552     1  0.0000000  0.6508444  3
   3538   3539   3551   3553     1  0.0000000  0.6508444  3
   3538   3542   3554   3555     1  0.0000000  0.6508444  3
   3538   3542   3554   3556     1  0.0000000  0.6508444  3
   3538   3545   3548   3549     1  0.0000000  0.6508444  3
   3538   3545   3548   3550     1  0.0000000  0.6508444  3
   3539   3538   3542   3543     1  0.0000000  1.2552000  3
   3539   3538   3542   3544     1  0.0000000  1.2552000  3
   3539   3538   3545   3546     1  0.0000000  1.2552000  3
   3539   3538   3545   3547     1  0.0000000  1.2552000  3
   3539   3551   3563   3564     1  0.0000000  0.6508444  3
   3539   3551   3563   3565     1  0.0000000  0.6508444  3
   3540   3539   3538   3542     1  0.0000000  1.2552000  3
   3540   3539   3538   3545     1  0.0000000  1.2552000  3
   3540   3539   3551   3563     1  0.0000000  0.6508444  3
   3540   3539   3551   3552     1  0.0000000  0.6508444  3
   3540   3539   3551   3553     1  0.0000000  0.6508444  3
   3541   3539   3538   3542     1  0.0000000  1.2552000  3
   3541   3539   3538   3545     1  0.0000000  1.2552000  3
   3541   3539   3551   3563     1  0.0000000  0.6508444  3
   3541   3539   3551   3552     1  0.0000000  0.6508444  3
   3541   3539   3551   3553     1  0.0000000  0.6508444  3
   3542   3538   3545   3546     1  0.0000000  1.2552000  3
   3542   3538   3545   3547     1  0.0000000  1.2552000  3
   3542   3554   3560   3561     1  0.0000000  0.6508444  3
   3542   3554   3560   3562     1  0.0000000  0.6508444  3
   3543   3542   3538   3545     1  0.0000000  1.2552000  3
   3543   3542   3554   3560     1  0.0000000  0.6508444  3
   3543   3542   3554   3555     1  0.0000000  0.6508444  3
   3543   3542   3554   3556     1  0.0000000  0.6508444  3
   3544   3542   3538   3545     1  0.0000000  1.2552000  3
   3544   3542   3554   3560     1  0.0000000  0.6508444  3
   3544   3542   3554   3555     1  0.0000000  0.6508444  3
   3544   3542   3554   3556     1  0.0000000  0.6508444  3
   3545   3548   3557   3558     1  0.0000000  0.6508444  3
   3545   3548   3557   3559     1  0.0000000  0.6508444  3
   3546   3545   3548   3557     1  0.0000000  0.6508444  3
   3546   3545   3548   3549     1  0.0000000  0.6508444  3
   3546   3545   3548   3550     1  0.0000000  0.6508444  3
   3547   3545   3548   3557     1  0.0000000  0.6508444  3
   3547   3545   3548   3549     1  0.0000000  0.6508444  3
   3547   3545   3548   3550     1  0.0000000  0.6508444  3
   3549   3548   3557   3566     1  0.0000000  1.0460000  1
   3549   3548   3557   3566     1  0.0000000  0.0000000  3
   3549   3548   3557   3558     1  0.0000000  0.6508444  3
   3549   3548   3557   3559     1  0.0000000  0.6508444  3
   3550   3548   3557   3566     1  0.0000000  1.0460000  1
   3550   3548   3557   3566     1  0.0000000  0.0000000  3
   3550   3548   3557   3558     1  0.0000000  0.6508444  3
   3550   3548   3557   3559     1  0.0000000  0.6508444  3
   3552   3551   3563   7435     1  0.0000000  1.0460000  1
   3552   3551   3563   7435     1  0.0000000  0.0000000  3
   3552   3551   3563   3564     1  0.0000000  0.6508444  3
   3552   3551   3563   3565     1  0.0000000  0.6508444  3
   3553   3551   3563   7435     1  0.0000000  1.0460000  1
   3553   3551   3563   7435     1  0.0000000  0.0000000  3
   3553   3551   3563   3564     1  0.0000000  0.6508444  3
   3553   3551   3563   3565     1  0.0000000  0.6508444  3
   3555   3554   3560   7404     1  0.0000000  1.0460000  1
   3555   3554   3560   7404     1  0.0000000  0.0000000  3
   3555   3554   3560   3561     1  0.0000000  0.6508444  3
   3555   3554   3560   3562     1  0.0000000  0.6508444  3
   3556   3554   3560   7404     1  0.0000000  1.0460000  1
   3556   3554   3560   7404     1  0.0000000  0.0000000  3
   3556   3554   3560   3561     1  0.0000000  0.6508444  3
   3556   3554   3560   3562     1  0.0000000  0.6508444  3
   3560   7404   7374   7375     1  0.0000000  1.6038667  3
   3560   7404   7374   7376     1  0.0000000  1.6038667  3
   3561   3560   7404   7374     1  0.0000000  1.6038667  3
   3562   3560   7404   7374     1  0.0000000  1.6038667  3
   3563   7435   7405   7406     1  0.0000000  1.6038667  3
   3563   7435   7405   7407     1  0.0000000  1.6038667  3
   3564   3563   7435   7405     1  0.0000000  1.6038667  3
   3565   3563   7435   7405     1  0.0000000  1.6038667  3
   3567   3568   3580   3581     1  0.0000000  0.6508444  3
   3567   3568   3580   3582     1  0.0000000  0.6508444  3
   3567   3571   3583   3584     1  0.0000000  0.6508444  3
   3567   3571   3583   3585     1  0.0000000  0.6508444  3
   3567   3574   3577   3578     1  0.0000000  0.6508444  3
   3567   3574   3577   3579     1  0.0000000  0.6508444  3
   3568   3567   3571   3572     1  0.0000000  1.2552000  3
   3568   3567   3571   3573     1  0.0000000  1.2552000  3
   3568   3567   3574   3575     1  0.0000000  1.2552000  3
   3568   3567   3574   3576     1  0.0000000  1.2552000  3
   3568   3580   3592   3593     1  0.0000000  0.6508444  3
   3568   3580   3592   3594     1  0.0000000  0.6508444  3
   3569   3568   3567   3571     1  0.0000000  1.2552000  3
   3569   3568   3567   3574     1  0.0000000  1.2552000  3
   3569   3568   3580   3592     1  0.0000000  0.6508444  3
   3569   3568   3580   3581     1  0.0000000  0.6508444  3
   3569   3568   3580   3582     1  0.0000000  0.6508444  3
   3570   3568   3567   3571     1  0.0000000  1.2552000  3
   3570   3568   3567   3574     1  0.0000000  1.2552000  3
   3570   3568   3580   3592     1  0.0000000  0.6508444  3
   3570   3568   3580   3581     1  0.0000000  0.6508444  3
   3570   3568   3580   3582     1  0.0000000  0.6508444  3
   3571   3567   3574   3575     1  0.0000000  1.2552000  3
   3571   3567   3574   3576     1  0.0000000  1.2552000  3
   3571   3583   3589   3590     1  0.0000000  0.6508444  3
   3571   3583   3589   3591     1  0.0000000  0.6508444  3
   3572   3571   3567   3574     1  0.0000000  1.2552000  3
   3572   3571   3583   3589     1  0.0000000  0.6508444  3
   3572   3571   3583   3584     1  0.0000000  0.6508444  3
   3572   3571   3583   3585     1  0.0000000  0.6508444  3
   3573   3571   3567   3574     1  0.0000000  1.2552000  3
   3573   3571   3583   3589     1  0.0000000  0.6508444  3
   3573   3571   3583   3584     1  0.0000000  0.6508444  3
   3573   3571   3583   3585     1  0.0000000  0.6508444  3
   3574   3577   3586   3587     1  0.0000000  0.6508444  3
   3574   3577   3586   3588     1  0.0000000  0.6508444  3
   3575   3574   3577   3586     1  0.0000000  0.6508444  3
   3575   3574   3577   3578     1  0.0000000  0.6508444  3
   3575   3574   3577   3579     1  0.0000000  0.6508444  3
   3576   3574   3577   3586     1  0.0000000  0.6508444  3
   3576   3574   3577   3578     1  0.0000000  0.6508444  3
   3576   3574   3577   3579     1  0.0000000  0.6508444  3
   3578   3577   3586   3595     1  0.0000000  1.0460000  1
   3578   3577   3586   3595     1  0.0000000  0.0000000  3
   3578   3577   3586   3587     1  0.0000000  0.6508444  3
   3578   3577   3586   3588     1  0.0000000  0.6508444  3
   3579   3577   3586   3595     1  0.0000000  1.0460000  1
   3579   3577   3586   3595     1  0.0000000  0.0000000  3
   3579   3577   3586   3587     1  0.0000000  0.6508444  3
   3579   3577   3586   3588     1  0.0000000  0.6508444  3
   3581   3580   3592   7497     1  0.0000000  1.0460000  1
   3581   3580   3592   7497     1  0.0000000  0.0000000  3
   3581   3580   3592   3593     1  0.0000000  0.6508444  3
   3581   3580   3592   3594     1  0.0000000  0.6508444  3
   3582   3580   3592   7497     1  0.0000000  1.0460000  1
   3582   3580   3592   7497     1  0.0000000  0.0000000  3
   3582   3580   3592   3593     1  0.0000000  0.6508444  3
   3582   3580   3592   3594     1  0.0000000  0.6508444  3
   3584   3583   3589   7466     1  0.0000000  1.0460000  1
   3584   3583   3589   7466     1  0.0000000  0.0000000  3
   3584   3583   3589   3590     1  0.0000000  0.6508444  3
   3584   3583   3589   3591     1  0.0000000  0.6508444  3
   3585   3583   3589   7466     1  0.0000000  1.0460000  1
   3585   3583   3589   7466     1  0.0000000  0.0000000  3
   3585   3583   3589   3590     1  0.0000000  0.6508444  3
   3585   3583   3589   3591     1  0.0000000  0.6508444  3
   3589   7466   7436   7437     1  0.0000000  1.6038667  3
   3589   7466   7436   7438     1  0.0000000  1.6038667  3
   3590   3589   7466   7436     1  0.0000000  1.6038667  3
   3591   3589   7466   7436     1  0.0000000  1.6038667  3
   3592   7497   7467   7468     1  0.0000000  1.6038667  3
   3592   7497   7467   7469     1  0.0000000  1.6038667  3
   3593   3592   7497   7467     1  0.0000000  1.6038667  3
   3594   3592   7497   7467     1  0.0000000  1.6038667  3
   3596   3597   3609   3610     1  0.0000000  0.6508444  3
   3596   3597   3609   3611     1  0.0000000  0.6508444  3
   3596   3600   3612   3613     1  0.0000000  0.6508444  3
   3596   3600   3612   3614     1  0.0000000  0.6508444  3
   3596   3603   3606   3607     1  0.0000000  0.6508444  3
   3596   3603   3606   3608     1  0.0000000  0.6508444  3
   3597   3596   3600   3601     1  0.0000000  1.2552000  3
   3597   3596   3600   3602     1  0.0000000  1.2552000  3
   3597   3596   3603   3604     1  0.0000000  1.2552000  3
   3597   3596   3603   3605     1  0.0000000  1.2552000  3
   3597   3609   3621   3622     1  0.0000000  0.6508444  3
   3597   3609   3621   3623     1  0.0000000  0.6508444  3
   3598   3597   3596   3600     1  0.0000000  1.2552000  3
   3598   3597   3596   3603     1  0.0000000  1.2552000  3
   3598   3597   3609   3621     1  0.0000000  0.6508444  3
   3598   3597   3609   3610     1  0.0000000  0.6508444  3
   3598   3597   3609   3611     1  0.0000000  0.6508444  3
   3599   3597   3596   3600     1  0.0000000  1.2552000  3
   3599   3597   3596   3603     1  0.0000000  1.2552000  3
   3599   3597   3609   3621     1  0.0000000  0.6508444  3
   3599   3597   3609   3610     1  0.0000000  0.6508444  3
   3599   3597   3609   3611     1  0.0000000  0.6508444  3
   3600   3596   3603   3604     1  0.0000000  1.2552000  3
   3600   3596   3603   3605     1  0.0000000  1.2552000  3
   3600   3612   3618   3619     1  0.0000000  0.6508444  3
   3600   3612   3618   3620     1  0.0000000  0.6508444  3
   3601   3600   3596   3603     1  0.0000000  1.2552000  3
   3601   3600   3612   3618     1  0.0000000  0.6508444  3
   3601   3600   3612   3613     1  0.0000000  0.6508444  3
   3601   3600   3612   3614     1  0.0000000  0.6508444  3
   3602   3600   3596   3603     1  0.0000000  1.2552000  3
   3602   3600   3612   3618     1  0.0000000  0.6508444  3
   3602   3600   3612   3613     1  0.0000000  0.6508444  3
   3602   3600   3612   3614     1  0.0000000  0.6508444  3
   3603   3606   3615   3616     1  0.0000000  0.6508444  3
   3603   3606   3615   3617     1  0.0000000  0.6508444  3
   3604   3603   3606   3615     1  0.0000000  0.6508444  3
   3604   3603   3606   3607     1  0.0000000  0.6508444  3
   3604   3603   3606   3608     1  0.0000000  0.6508444  3
   3605   3603   3606   3615     1  0.0000000  0.6508444  3
   3605   3603   3606   3607     1  0.0000000  0.6508444  3
   3605   3603   3606   3608     1  0.0000000  0.6508444  3
   3607   3606   3615   3624     1  0.0000000  1.0460000  1
   3607   3606   3615   3624     1  0.0000000  0.0000000  3
   3607   3606   3615   3616     1  0.0000000  0.6508444  3
   3607   3606   3615   3617     1  0.0000000  0.6508444  3
   3608   3606   3615   3624     1  0.0000000  1.0460000  1
   3608   3606   3615   3624     1  0.0000000  0.0000000  3
   3608   3606   3615   3616     1  0.0000000  0.6508444  3
   3608   3606   3615   3617     1  0.0000000  0.6508444  3
   3610   3609   3621   7559     1  0.0000000  1.0460000  1
   3610   3609   3621   7559     1  0.0000000  0.0000000  3
   3610   3609   3621   3622     1  0.0000000  0.6508444  3
   3610   3609   3621   3623     1  0.0000000  0.6508444  3
   3611   3609   3621   7559     1  0.0000000  1.0460000  1
   3611   3609   3621   7559     1  0.0000000  0.0000000  3
   3611   3609   3621   3622     1  0.0000000  0.6508444  3
   3611   3609   3621   3623     1  0.0000000  0.6508444  3
   3613   3612   3618   7528     1  0.0000000  1.0460000  1
   3613   3612   3618   7528     1  0.0000000  0.0000000  3
   3613   3612   3618   3619     1  0.0000000  0.6508444  3
   3613   3612   3618   3620     1  0.0000000  0.6508444  3
   3614   3612   3618   7528     1  0.0000000  1.0460000  1
   3614   3612   3618   7528     1  0.0000000  0.0000000  3
   3614   3612   3618   3619     1  0.0000000  0.6508444  3
   3614   3612   3618   3620     1  0.0000000  0.6508444  3
   3618   7528   7498   7499     1  0.0000000  1.6038667  3
   3618   7528   7498   7500     1  0.0000000  1.6038667  3
   3619   3618   7528   7498     1  0.0000000  1.6038667  3
   3620   3618   7528   7498     1  0.0000000  1.6038667  3
   3621   7559   7529   7530     1  0.0000000  1.6038667  3
   3621   7559   7529   7531     1  0.0000000  1.6038667  3
   3622   3621   7559   7529     1  0.0000000  1.6038667  3
   3623   3621   7559   7529     1  0.0000000  1.6038667  3
   3625   3626   3638   3639     1  0.0000000  0.6508444  3
   3625   3626   3638   3640     1  0.0000000  0.6508444  3
   3625   3629   3641   3642     1  0.0000000  0.6508444  3
   3625   3629   3641   3643     1  0.0000000  0.6508444  3
   3625   3632   3635   3636     1  0.0000000  0.6508444  3
   3625   3632   3635   3637     1  0.0000000  0.6508444  3
   3626   3625   3629   3630     1  0.0000000  1.2552000  3
   3626   3625   3629   3631     1  0.0000000  1.2552000  3
   3626   3625   3632   3633     1  0.0000000  1.2552000  3
   3626   3625   3632   3634     1  0.0000000  1.2552000  3
   3626   3638   3650   3651     1  0.0000000  0.6508444  3
   3626   3638   3650   3652     1  0.0000000  0.6508444  3
   3627   3626   3625   3629     1  0.0000000  1.2552000  3
   3627   3626   3625   3632     1  0.0000000  1.2552000  3
   3627   3626   3638   3650     1  0.0000000  0.6508444  3
   3627   3626   3638   3639     1  0.0000000  0.6508444  3
   3627   3626   3638   3640     1  0.0000000  0.6508444  3
   3628   3626   3625   3629     1  0.0000000  1.2552000  3
   3628   3626   3625   3632     1  0.0000000  1.2552000  3
   3628   3626   3638   3650     1  0.0000000  0.6508444  3
   3628   3626   3638   3639     1  0.0000000  0.6508444  3
   3628   3626   3638   3640     1  0.0000000  0.6508444  3
   3629   3625   3632   3633     1  0.0000000  1.2552000  3
   3629   3625   3632   3634     1  0.0000000  1.2552000  3
   3629   3641   3647   3648     1  0.0000000  0.6508444  3
   3629   3641   3647   3649     1  0.0000000  0.6508444  3
   3630   3629   3625   3632     1  0.0000000  1.2552000  3
   3630   3629   3641   3647     1  0.0000000  0.6508444  3
   3630   3629   3641   3642     1  0.0000000  0.6508444  3
   3630   3629   3641   3643     1  0.0000000  0.6508444  3
   3631   3629   3625   3632     1  0.0000000  1.2552000  3
   3631   3629   3641   3647     1  0.0000000  0.6508444  3
   3631   3629   3641   3642     1  0.0000000  0.6508444  3
   3631   3629   3641   3643     1  0.0000000  0.6508444  3
   3632   3635   3644   3645     1  0.0000000  0.6508444  3
   3632   3635   3644   3646     1  0.0000000  0.6508444  3
   3633   3632   3635   3644     1  0.0000000  0.6508444  3
   3633   3632   3635   3636     1  0.0000000  0.6508444  3
   3633   3632   3635   3637     1  0.0000000  0.6508444  3
   3634   3632   3635   3644     1  0.0000000  0.6508444  3
   3634   3632   3635   3636     1  0.0000000  0.6508444  3
   3634   3632   3635   3637     1  0.0000000  0.6508444  3
   3636   3635   3644   3653     1  0.0000000  1.0460000  1
   3636   3635   3644   3653     1  0.0000000  0.0000000  3
   3636   3635   3644   3645     1  0.0000000  0.6508444  3
   3636   3635   3644   3646     1  0.0000000  0.6508444  3
   3637   3635   3644   3653     1  0.0000000  1.0460000  1
   3637   3635   3644   3653     1  0.0000000  0.0000000  3
   3637   3635   3644   3645     1  0.0000000  0.6508444  3
   3637   3635   3644   3646     1  0.0000000  0.6508444  3
   3639   3638   3650   7621     1  0.0000000  1.0460000  1
   3639   3638   3650   7621     1  0.0000000  0.0000000  3
   3639   3638   3650   3651     1  0.0000000  0.6508444  3
   3639   3638   3650   3652     1  0.0000000  0.6508444  3
   3640   3638   3650   7621     1  0.0000000  1.0460000  1
   3640   3638   3650   7621     1  0.0000000  0.0000000  3
   3640   3638   3650   3651     1  0.0000000  0.6508444  3
   3640   3638   3650   3652     1  0.0000000  0.6508444  3
   3642   3641   3647   7590     1  0.0000000  1.0460000  1
   3642   3641   3647   7590     1  0.0000000  0.0000000  3
   3642   3641   3647   3648     1  0.0000000  0.6508444  3
   3642   3641   3647   3649     1  0.0000000  0.6508444  3
   3643   3641   3647   7590     1  0.0000000  1.0460000  1
   3643   3641   3647   7590     1  0.0000000  0.0000000  3
   3643   3641   3647   3648     1  0.0000000  0.6508444  3
   3643   3641   3647   3649     1  0.0000000  0.6508444  3
   3647   7590   7560   7561     1  0.0000000  1.6038667  3
   3647   7590   7560   7562     1  0.0000000  1.6038667  3
   3648   3647   7590   7560     1  0.0000000  1.6038667  3
   3649   3647   7590   7560     1  0.0000000  1.6038667  3
   3650   7621   7591   7592     1  0.0000000  1.6038667  3
   3650   7621   7591   7593     1  0.0000000  1.6038667  3
   3651   3650   7621   7591     1  0.0000000  1.6038667  3
   3652   3650   7621   7591     1  0.0000000  1.6038667  3
   3654   3657   3660   3661     1  0.0000000  0.6508444  3
   3654   3657   3660   3662     1  0.0000000  0.6508444  3
   3655   3654   3657   3660     1  0.0000000  0.6508444  3
   3655   3654   3657   3658     1  0.0000000  0.6508444  3
   3655   3654   3657   3659     1  0.0000000  0.6508444  3
   3656   3654   3657   3660     1  0.0000000  0.6508444  3
   3656   3654   3657   3658     1  0.0000000  0.6508444  3
   3656   3654   3657   3659     1  0.0000000  0.6508444  3
   3658   3657   3654   3684     1  0.0000000  1.0460000  1
   3658   3657   3654   3684     1  0.0000000  0.0000000  3
   3658   3657   3660   3663     1  0.0000000  0.6508444  3
   3658   3657   3660   3661     1  0.0000000  0.6508444  3
   3658   3657   3660   3662     1  0.0000000  0.6508444  3
   3659   3657   3654   3684     1  0.0000000  1.0460000  1
   3659   3657   3654   3684     1  0.0000000  0.0000000  3
   3659   3657   3660   3663     1  0.0000000  0.6508444  3
   3659   3657   3660   3661     1  0.0000000  0.6508444  3
   3659   3657   3660   3662     1  0.0000000  0.6508444  3
   3660   3663   3664   3665     1  0.0000000  1.2552000  3
   3660   3663   3664   3666     1  0.0000000  1.2552000  3
   3660   3663   3674   3675     1  0.0000000  1.2552000  3
   3660   3663   3674   3676     1  0.0000000  1.2552000  3
   3661   3660   3663   3664     1  0.0000000  1.2552000  3
   3661   3660   3663   3674     1  0.0000000  1.2552000  3
   3662   3660   3663   3664     1  0.0000000  1.2552000  3
   3662   3660   3663   3674     1  0.0000000  1.2552000  3
   3663   3664   3667   3668     1  0.0000000  0.6508444  3
   3663   3664   3667   3669     1  0.0000000  0.6508444  3
   3663   3674   3677   3678     1  0.0000000  0.6508444  3
   3663   3674   3677   3679     1  0.0000000  0.6508444  3
   3664   3663   3674   3675     1  0.0000000  1.2552000  3
   3664   3663   3674   3676     1  0.0000000  1.2552000  3
   3665   3664   3663   3674     1  0.0000000  1.2552000  3
   3665   3664   3667   3670     1  0.0000000  0.6508444  3
   3665   3664   3667   3668     1  0.0000000  0.6508444  3
   3665   3664   3667   3669     1  0.0000000  0.6508444  3
   3666   3664   3663   3674     1  0.0000000  1.2552000  3
   3666   3664   3667   3670     1  0.0000000  0.6508444  3
   3666   3664   3667   3668     1  0.0000000  0.6508444  3
   3666   3664   3667   3669     1  0.0000000  0.6508444  3
   3667   3670   3672   3673     1  180.0000771  9.6232000  2
   3668   3667   3670   3671     1  0.0000000  3.3472000  1
   3668   3667   3670   3671     1  0.0000000  0.0000000  2
   3668   3667   3670   3671     1  180.0000771  0.3347200  3
   3668   3667   3670   3672     1  180.0000771  0.0000000  2
   3669   3667   3670   3671     1  0.0000000  3.3472000  1
   3669   3667   3670   3671     1  0.0000000  0.0000000  2
   3669   3667   3670   3671     1  180.0000771  0.3347200  3
   3669   3667   3670   3672     1  180.0000771  0.0000000  2
   3671   3670   3672   3673     1  0.0000000  7.9496000  1
   3671   3670   3672   3673     1  180.0000771  9.6232000  2
   3675   3674   3677   3680     1  0.0000000  0.6508444  3
   3675   3674   3677   3678     1  0.0000000  0.6508444  3
   3675   3674   3677   3679     1  0.0000000  0.6508444  3
   3676   3674   3677   3680     1  0.0000000  0.6508444  3
   3676   3674   3677   3678     1  0.0000000  0.6508444  3
   3676   3674   3677   3679     1  0.0000000  0.6508444  3
   3677   3680   3682   3683     1  180.0000771  9.6232000  2
   3678   3677   3680   3681     1  0.0000000  3.3472000  1
   3678   3677   3680   3681     1  0.0000000  0.0000000  2
   3678   3677   3680   3681     1  180.0000771  0.3347200  3
   3678   3677   3680   3682     1  180.0000771  0.0000000  2
   3679   3677   3680   3681     1  0.0000000  3.3472000  1
   3679   3677   3680   3681     1  0.0000000  0.0000000  2
   3679   3677   3680   3681     1  180.0000771  0.3347200  3
   3679   3677   3680   3682     1  180.0000771  0.0000000  2
   3681   3680   3682   3683     1  0.0000000  7.9496000  1
   3681   3680   3682   3683     1  180.0000771  9.6232000  2
   3685   3688   3691   3692     1  0.0000000  0.6508444  3
   3685   3688   3691   3693     1  0.0000000  0.6508444  3
   3686   3685   3688   3691     1  0.0000000  0.6508444  3
   3686   3685   3688   3689     1  0.0000000  0.6508444  3
   3686   3685   3688   3690     1  0.0000000  0.6508444  3
   3687   3685   3688   3691     1  0.0000000  0.6508444  3
   3687   3685   3688   3689     1  0.0000000  0.6508444  3
   3687   3685   3688   3690     1  0.0000000  0.6508444  3
   3689   3688   3691   3694     1  0.0000000  0.6508444  3
   3689   3688   3691   3692     1  0.0000000  0.6508444  3
   3689   3688   3691   3693     1  0.0000000  0.6508444  3
   3689   3688   3685   3715     1  0.0000000  1.0460000  1
   3689   3688   3685   3715     1  0.0000000  0.0000000  3
   3690   3688   3691   3694     1  0.0000000  0.6508444  3
   3690   3688   3691   3692     1  0.0000000  0.6508444  3
   3690   3688   3691   3693     1  0.0000000  0.6508444  3
   3690   3688   3685   3715     1  0.0000000  1.0460000  1
   3690   3688   3685   3715     1  0.0000000  0.0000000  3
   3691   3694   3695   3696     1  0.0000000  1.2552000  3
   3691   3694   3695   3697     1  0.0000000  1.2552000  3
   3691   3694   3705   3706     1  0.0000000  1.2552000  3
   3691   3694   3705   3707     1  0.0000000  1.2552000  3
   3692   3691   3694   3695     1  0.0000000  1.2552000  3
   3692   3691   3694   3705     1  0.0000000  1.2552000  3
   3693   3691   3694   3695     1  0.0000000  1.2552000  3
   3693   3691   3694   3705     1  0.0000000  1.2552000  3
   3694   3695   3698   3699     1  0.0000000  0.6508444  3
   3694   3695   3698   3700     1  0.0000000  0.6508444  3
   3694   3705   3708   3709     1  0.0000000  0.6508444  3
   3694   3705   3708   3710     1  0.0000000  0.6508444  3
   3695   3694   3705   3706     1  0.0000000  1.2552000  3
   3695   3694   3705   3707     1  0.0000000  1.2552000  3
   3696   3695   3698   3701     1  0.0000000  0.6508444  3
   3696   3695   3698   3699     1  0.0000000  0.6508444  3
   3696   3695   3698   3700     1  0.0000000  0.6508444  3
   3696   3695   3694   3705     1  0.0000000  1.2552000  3
   3697   3695   3698   3701     1  0.0000000  0.6508444  3
   3697   3695   3698   3699     1  0.0000000  0.6508444  3
   3697   3695   3698   3700     1  0.0000000  0.6508444  3
   3697   3695   3694   3705     1  0.0000000  1.2552000  3
   3698   3701   3703   3704     1  180.0000771  9.6232000  2
   3699   3698   3701   3702     1  0.0000000  3.3472000  1
   3699   3698   3701   3702     1  0.0000000  0.0000000  2
   3699   3698   3701   3702     1  180.0000771  0.3347200  3
   3699   3698   3701   3703     1  180.0000771  0.0000000  2
   3700   3698   3701   3702     1  0.0000000  3.3472000  1
   3700   3698   3701   3702     1  0.0000000  0.0000000  2
   3700   3698   3701   3702     1  180.0000771  0.3347200  3
   3700   3698   3701   3703     1  180.0000771  0.0000000  2
   3702   3701   3703   3704     1  0.0000000  7.9496000  1
   3702   3701   3703   3704     1  180.0000771  9.6232000  2
   3706   3705   3708   3711     1  0.0000000  0.6508444  3
   3706   3705   3708   3709     1  0.0000000  0.6508444  3
   3706   3705   3708   3710     1  0.0000000  0.6508444  3
   3707   3705   3708   3711     1  0.0000000  0.6508444  3
   3707   3705   3708   3709     1  0.0000000  0.6508444  3
   3707   3705   3708   3710     1  0.0000000  0.6508444  3
   3708   3711   3713   3714     1  180.0000771  9.6232000  2
   3709   3708   3711   3712     1  0.0000000  3.3472000  1
   3709   3708   3711   3712     1  0.0000000  0.0000000  2
   3709   3708   3711   3712     1  180.0000771  0.3347200  3
   3709   3708   3711   3713     1  180.0000771  0.0000000  2
   3710   3708   3711   3712     1  0.0000000  3.3472000  1
   3710   3708   3711   3712     1  0.0000000  0.0000000  2
   3710   3708   3711   3712     1  180.0000771  0.3347200  3
   3710   3708   3711   3713     1  180.0000771  0.0000000  2
   3712   3711   3713   3714     1  0.0000000  7.9496000  1
   3712   3711   3713   3714     1  180.0000771  9.6232000  2
   3716   3719   3722   3723     1  0.0000000  0.6508444  3
   3716   3719   3722   3724     1  0.0000000  0.6508444  3
   3717   3716   3719   3722     1  0.0000000  0.6508444  3
   3717   3716   3719   3720     1  0.0000000  0.6508444  3
   3717   3716   3719   3721     1  0.0000000  0.6508444  3
   3718   3716   3719   3722     1  0.0000000  0.6508444  3
   3718   3716   3719   3720     1  0.0000000  0.6508444  3
   3718   3716   3719   3721     1  0.0000000  0.6508444  3
   3720   3719   3716   3746     1  0.0000000  1.0460000  1
   3720   3719   3716   3746     1  0.0000000  0.0000000  3
   3720   3719   3722   3725     1  0.0000000  0.6508444  3
   3720   3719   3722   3723     1  0.0000000  0.6508444  3
   3720   3719   3722   3724     1  0.0000000  0.6508444  3
   3721   3719   3716   3746     1  0.0000000  1.0460000  1
   3721   3719   3716   3746     1  0.0000000  0.0000000  3
   3721   3719   3722   3725     1  0.0000000  0.6508444  3
   3721   3719   3722   3723     1  0.0000000  0.6508444  3
   3721   3719   3722   3724     1  0.0000000  0.6508444  3
   3722   3725   3726   3727     1  0.0000000  1.2552000  3
   3722   3725   3726   3728     1  0.0000000  1.2552000  3
   3722   3725   3736   3737     1  0.0000000  1.2552000  3
   3722   3725   3736   3738     1  0.0000000  1.2552000  3
   3723   3722   3725   3726     1  0.0000000  1.2552000  3
   3723   3722   3725   3736     1  0.0000000  1.2552000  3
   3724   3722   3725   3726     1  0.0000000  1.2552000  3
   3724   3722   3725   3736     1  0.0000000  1.2552000  3
   3725   3726   3729   3730     1  0.0000000  0.6508444  3
   3725   3726   3729   3731     1  0.0000000  0.6508444  3
   3725   3736   3739   3740     1  0.0000000  0.6508444  3
   3725   3736   3739   3741     1  0.0000000  0.6508444  3
   3726   3725   3736   3737     1  0.0000000  1.2552000  3
   3726   3725   3736   3738     1  0.0000000  1.2552000  3
   3727   3726   3725   3736     1  0.0000000  1.2552000  3
   3727   3726   3729   3732     1  0.0000000  0.6508444  3
   3727   3726   3729   3730     1  0.0000000  0.6508444  3
   3727   3726   3729   3731     1  0.0000000  0.6508444  3
   3728   3726   3725   3736     1  0.0000000  1.2552000  3
   3728   3726   3729   3732     1  0.0000000  0.6508444  3
   3728   3726   3729   3730     1  0.0000000  0.6508444  3
   3728   3726   3729   3731     1  0.0000000  0.6508444  3
   3729   3732   3734   3735     1  180.0000771  9.6232000  2
   3730   3729   3732   3733     1  0.0000000  3.3472000  1
   3730   3729   3732   3733     1  0.0000000  0.0000000  2
   3730   3729   3732   3733     1  180.0000771  0.3347200  3
   3730   3729   3732   3734     1  180.0000771  0.0000000  2
   3731   3729   3732   3733     1  0.0000000  3.3472000  1
   3731   3729   3732   3733     1  0.0000000  0.0000000  2
   3731   3729   3732   3733     1  180.0000771  0.3347200  3
   3731   3729   3732   3734     1  180.0000771  0.0000000  2
   3733   3732   3734   3735     1  0.0000000  7.9496000  1
   3733   3732   3734   3735     1  180.0000771  9.6232000  2
   3737   3736   3739   3742     1  0.0000000  0.6508444  3
   3737   3736   3739   3740     1  0.0000000  0.6508444  3
   3737   3736   3739   3741     1  0.0000000  0.6508444  3
   3738   3736   3739   3742     1  0.0000000  0.6508444  3
   3738   3736   3739   3740     1  0.0000000  0.6508444  3
   3738   3736   3739   3741     1  0.0000000  0.6508444  3
   3739   3742   3744   3745     1  180.0000771  9.6232000  2
   3740   3739   3742   3743     1  0.0000000  3.3472000  1
   3740   3739   3742   3743     1  0.0000000  0.0000000  2
   3740   3739   3742   3743     1  180.0000771  0.3347200  3
   3740   3739   3742   3744     1  180.0000771  0.0000000  2
   3741   3739   3742   3743     1  0.0000000  3.3472000  1
   3741   3739   3742   3743     1  0.0000000  0.0000000  2
   3741   3739   3742   3743     1  180.0000771  0.3347200  3
   3741   3739   3742   3744     1  180.0000771  0.0000000  2
   3743   3742   3744   3745     1  0.0000000  7.9496000  1
   3743   3742   3744   3745     1  180.0000771  9.6232000  2
   3747   3750   3753   3754     1  0.0000000  0.6508444  3
   3747   3750   3753   3755     1  0.0000000  0.6508444  3
   3748   3747   3750   3753     1  0.0000000  0.6508444  3
   3748   3747   3750   3751     1  0.0000000  0.6508444  3
   3748   3747   3750   3752     1  0.0000000  0.6508444  3
   3749   3747   3750   3753     1  0.0000000  0.6508444  3
   3749   3747   3750   3751     1  0.0000000  0.6508444  3
   3749   3747   3750   3752     1  0.0000000  0.6508444  3
   3751   3750   3753   3756     1  0.0000000  0.6508444  3
   3751   3750   3753   3754     1  0.0000000  0.6508444  3
   3751   3750   3753   3755     1  0.0000000  0.6508444  3
   3751   3750   3747   3777     1  0.0000000  1.0460000  1
   3751   3750   3747   3777     1  0.0000000  0.0000000  3
   3752   3750   3753   3756     1  0.0000000  0.6508444  3
   3752   3750   3753   3754     1  0.0000000  0.6508444  3
   3752   3750   3753   3755     1  0.0000000  0.6508444  3
   3752   3750   3747   3777     1  0.0000000  1.0460000  1
   3752   3750   3747   3777     1  0.0000000  0.0000000  3
   3753   3756   3757   3758     1  0.0000000  1.2552000  3
   3753   3756   3757   3759     1  0.0000000  1.2552000  3
   3753   3756   3767   3768     1  0.0000000  1.2552000  3
   3753   3756   3767   3769     1  0.0000000  1.2552000  3
   3754   3753   3756   3757     1  0.0000000  1.2552000  3
   3754   3753   3756   3767     1  0.0000000  1.2552000  3
   3755   3753   3756   3757     1  0.0000000  1.2552000  3
   3755   3753   3756   3767     1  0.0000000  1.2552000  3
   3756   3757   3760   3761     1  0.0000000  0.6508444  3
   3756   3757   3760   3762     1  0.0000000  0.6508444  3
   3756   3767   3770   3771     1  0.0000000  0.6508444  3
   3756   3767   3770   3772     1  0.0000000  0.6508444  3
   3757   3756   3767   3768     1  0.0000000  1.2552000  3
   3757   3756   3767   3769     1  0.0000000  1.2552000  3
   3758   3757   3760   3763     1  0.0000000  0.6508444  3
   3758   3757   3760   3761     1  0.0000000  0.6508444  3
   3758   3757   3760   3762     1  0.0000000  0.6508444  3
   3758   3757   3756   3767     1  0.0000000  1.2552000  3
   3759   3757   3760   3763     1  0.0000000  0.6508444  3
   3759   3757   3760   3761     1  0.0000000  0.6508444  3
   3759   3757   3760   3762     1  0.0000000  0.6508444  3
   3759   3757   3756   3767     1  0.0000000  1.2552000  3
   3760   3763   3765   3766     1  180.0000771  9.6232000  2
   3761   3760   3763   3764     1  0.0000000  3.3472000  1
   3761   3760   3763   3764     1  0.0000000  0.0000000  2
   3761   3760   3763   3764     1  180.0000771  0.3347200  3
   3761   3760   3763   3765     1  180.0000771  0.0000000  2
   3762   3760   3763   3764     1  0.0000000  3.3472000  1
   3762   3760   3763   3764     1  0.0000000  0.0000000  2
   3762   3760   3763   3764     1  180.0000771  0.3347200  3
   3762   3760   3763   3765     1  180.0000771  0.0000000  2
   3764   3763   3765   3766     1  0.0000000  7.9496000  1
   3764   3763   3765   3766     1  180.0000771  9.6232000  2
   3768   3767   3770   3773     1  0.0000000  0.6508444  3
   3768   3767   3770   3771     1  0.0000000  0.6508444  3
   3768   3767   3770   3772     1  0.0000000  0.6508444  3
   3769   3767   3770   3773     1  0.0000000  0.6508444  3
   3769   3767   3770   3771     1  0.0000000  0.6508444  3
   3769   3767   3770   3772     1  0.0000000  0.6508444  3
   3770   3773   3775   3776     1  180.0000771  9.6232000  2
   3771   3770   3773   3774     1  0.0000000  3.3472000  1
   3771   3770   3773   3774     1  0.0000000  0.0000000  2
   3771   3770   3773   3774     1  180.0000771  0.3347200  3
   3771   3770   3773   3775     1  180.0000771  0.0000000  2
   3772   3770   3773   3774     1  0.0000000  3.3472000  1
   3772   3770   3773   3774     1  0.0000000  0.0000000  2
   3772   3770   3773   3774     1  180.0000771  0.3347200  3
   3772   3770   3773   3775     1  180.0000771  0.0000000  2
   3774   3773   3775   3776     1  0.0000000  7.9496000  1
   3774   3773   3775   3776     1  180.0000771  9.6232000  2
   3778   3781   3784   3785     1  0.0000000  0.6508444  3
   3778   3781   3784   3786     1  0.0000000  0.6508444  3
   3779   3778   3781   3784     1  0.0000000  0.6508444  3
   3779   3778   3781   3782     1  0.0000000  0.6508444  3
   3779   3778   3781   3783     1  0.0000000  0.6508444  3
   3780   3778   3781   3784     1  0.0000000  0.6508444  3
   3780   3778   3781   3782     1  0.0000000  0.6508444  3
   3780   3778   3781   3783     1  0.0000000  0.6508444  3
   3782   3781   3778   3808     1  0.0000000  1.0460000  1
   3782   3781   3778   3808     1  0.0000000  0.0000000  3
   3782   3781   3784   3787     1  0.0000000  0.6508444  3
   3782   3781   3784   3785     1  0.0000000  0.6508444  3
   3782   3781   3784   3786     1  0.0000000  0.6508444  3
   3783   3781   3778   3808     1  0.0000000  1.0460000  1
   3783   3781   3778   3808     1  0.0000000  0.0000000  3
   3783   3781   3784   3787     1  0.0000000  0.6508444  3
   3783   3781   3784   3785     1  0.0000000  0.6508444  3
   3783   3781   3784   3786     1  0.0000000  0.6508444  3
   3784   3787   3788   3789     1  0.0000000  1.2552000  3
   3784   3787   3788   3790     1  0.0000000  1.2552000  3
   3784   3787   3798   3799     1  0.0000000  1.2552000  3
   3784   3787   3798   3800     1  0.0000000  1.2552000  3
   3785   3784   3787   3788     1  0.0000000  1.2552000  3
   3785   3784   3787   3798     1  0.0000000  1.2552000  3
   3786   3784   3787   3788     1  0.0000000  1.2552000  3
   3786   3784   3787   3798     1  0.0000000  1.2552000  3
   3787   3788   3791   3792     1  0.0000000  0.6508444  3
   3787   3788   3791   3793     1  0.0000000  0.6508444  3
   3787   3798   3801   3802     1  0.0000000  0.6508444  3
   3787   3798   3801   3803     1  0.0000000  0.6508444  3
   3788   3787   3798   3799     1  0.0000000  1.2552000  3
   3788   3787   3798   3800     1  0.0000000  1.2552000  3
   3789   3788   3787   3798     1  0.0000000  1.2552000  3
   3789   3788   3791   3794     1  0.0000000  0.6508444  3
   3789   3788   3791   3792     1  0.0000000  0.6508444  3
   3789   3788   3791   3793     1  0.0000000  0.6508444  3
   3790   3788   3787   3798     1  0.0000000  1.2552000  3
   3790   3788   3791   3794     1  0.0000000  0.6508444  3
   3790   3788   3791   3792     1  0.0000000  0.6508444  3
   3790   3788   3791   3793     1  0.0000000  0.6508444  3
   3791   3794   3796   3797     1  180.0000771  9.6232000  2
   3792   3791   3794   3795     1  0.0000000  3.3472000  1
   3792   3791   3794   3795     1  0.0000000  0.0000000  2
   3792   3791   3794   3795     1  180.0000771  0.3347200  3
   3792   3791   3794   3796     1  180.0000771  0.0000000  2
   3793   3791   3794   3795     1  0.0000000  3.3472000  1
   3793   3791   3794   3795     1  0.0000000  0.0000000  2
   3793   3791   3794   3795     1  180.0000771  0.3347200  3
   3793   3791   3794   3796     1  180.0000771  0.0000000  2
   3795   3794   3796   3797     1  0.0000000  7.9496000  1
   3795   3794   3796   3797     1  180.0000771  9.6232000  2
   3799   3798   3801   3804     1  0.0000000  0.6508444  3
   3799   3798   3801   3802     1  0.0000000  0.6508444  3
   3799   3798   3801   3803     1  0.0000000  0.6508444  3
   3800   3798   3801   3804     1  0.0000000  0.6508444  3
   3800   3798   3801   3802     1  0.0000000  0.6508444  3
   3800   3798   3801   3803     1  0.0000000  0.6508444  3
   3801   3804   3806   3807     1  180.0000771  9.6232000  2
   3802   3801   3804   3805     1  0.0000000  3.3472000  1
   3802   3801   3804   3805     1  0.0000000  0.0000000  2
   3802   3801   3804   3805     1  180.0000771  0.3347200  3
   3802   3801   3804   3806     1  180.0000771  0.0000000  2
   3803   3801   3804   3805     1  0.0000000  3.3472000  1
   3803   3801   3804   3805     1  0.0000000  0.0000000  2
   3803   3801   3804   3805     1  180.0000771  0.3347200  3
   3803   3801   3804   3806     1  180.0000771  0.0000000  2
   3805   3804   3806   3807     1  0.0000000  7.9496000  1
   3805   3804   3806   3807     1  180.0000771  9.6232000  2
   3809   3812   3815   3816     1  0.0000000  0.6508444  3
   3809   3812   3815   3817     1  0.0000000  0.6508444  3
   3810   3809   3812   3815     1  0.0000000  0.6508444  3
   3810   3809   3812   3813     1  0.0000000  0.6508444  3
   3810   3809   3812   3814     1  0.0000000  0.6508444  3
   3811   3809   3812   3815     1  0.0000000  0.6508444  3
   3811   3809   3812   3813     1  0.0000000  0.6508444  3
   3811   3809   3812   3814     1  0.0000000  0.6508444  3
   3813   3812   3815   3818     1  0.0000000  0.6508444  3
   3813   3812   3815   3816     1  0.0000000  0.6508444  3
   3813   3812   3815   3817     1  0.0000000  0.6508444  3
   3813   3812   3809   3839     1  0.0000000  1.0460000  1
   3813   3812   3809   3839     1  0.0000000  0.0000000  3
   3814   3812   3815   3818     1  0.0000000  0.6508444  3
   3814   3812   3815   3816     1  0.0000000  0.6508444  3
   3814   3812   3815   3817     1  0.0000000  0.6508444  3
   3814   3812   3809   3839     1  0.0000000  1.0460000  1
   3814   3812   3809   3839     1  0.0000000  0.0000000  3
   3815   3818   3819   3820     1  0.0000000  1.2552000  3
   3815   3818   3819   3821     1  0.0000000  1.2552000  3
   3815   3818   3829   3830     1  0.0000000  1.2552000  3
   3815   3818   3829   3831     1  0.0000000  1.2552000  3
   3816   3815   3818   3819     1  0.0000000  1.2552000  3
   3816   3815   3818   3829     1  0.0000000  1.2552000  3
   3817   3815   3818   3819     1  0.0000000  1.2552000  3
   3817   3815   3818   3829     1  0.0000000  1.2552000  3
   3818   3819   3822   3823     1  0.0000000  0.6508444  3
   3818   3819   3822   3824     1  0.0000000  0.6508444  3
   3818   3829   3832   3833     1  0.0000000  0.6508444  3
   3818   3829   3832   3834     1  0.0000000  0.6508444  3
   3819   3818   3829   3830     1  0.0000000  1.2552000  3
   3819   3818   3829   3831     1  0.0000000  1.2552000  3
   3820   3819   3822   3825     1  0.0000000  0.6508444  3
   3820   3819   3822   3823     1  0.0000000  0.6508444  3
   3820   3819   3822   3824     1  0.0000000  0.6508444  3
   3820   3819   3818   3829     1  0.0000000  1.2552000  3
   3821   3819   3822   3825     1  0.0000000  0.6508444  3
   3821   3819   3822   3823     1  0.0000000  0.6508444  3
   3821   3819   3822   3824     1  0.0000000  0.6508444  3
   3821   3819   3818   3829     1  0.0000000  1.2552000  3
   3822   3825   3827   3828     1  180.0000771  9.6232000  2
   3823   3822   3825   3826     1  0.0000000  3.3472000  1
   3823   3822   3825   3826     1  0.0000000  0.0000000  2
   3823   3822   3825   3826     1  180.0000771  0.3347200  3
   3823   3822   3825   3827     1  180.0000771  0.0000000  2
   3824   3822   3825   3826     1  0.0000000  3.3472000  1
   3824   3822   3825   3826     1  0.0000000  0.0000000  2
   3824   3822   3825   3826     1  180.0000771  0.3347200  3
   3824   3822   3825   3827     1  180.0000771  0.0000000  2
   3826   3825   3827   3828     1  0.0000000  7.9496000  1
   3826   3825   3827   3828     1  180.0000771  9.6232000  2
   3830   3829   3832   3835     1  0.0000000  0.6508444  3
   3830   3829   3832   3833     1  0.0000000  0.6508444  3
   3830   3829   3832   3834     1  0.0000000  0.6508444  3
   3831   3829   3832   3835     1  0.0000000  0.6508444  3
   3831   3829   3832   3833     1  0.0000000  0.6508444  3
   3831   3829   3832   3834     1  0.0000000  0.6508444  3
   3832   3835   3837   3838     1  180.0000771  9.6232000  2
   3833   3832   3835   3836     1  0.0000000  3.3472000  1
   3833   3832   3835   3836     1  0.0000000  0.0000000  2
   3833   3832   3835   3836     1  180.0000771  0.3347200  3
   3833   3832   3835   3837     1  180.0000771  0.0000000  2
   3834   3832   3835   3836     1  0.0000000  3.3472000  1
   3834   3832   3835   3836     1  0.0000000  0.0000000  2
   3834   3832   3835   3836     1  180.0000771  0.3347200  3
   3834   3832   3835   3837     1  180.0000771  0.0000000  2
   3836   3835   3837   3838     1  0.0000000  7.9496000  1
   3836   3835   3837   3838     1  180.0000771  9.6232000  2
   3840   3843   3846   3847     1  0.0000000  0.6508444  3
   3840   3843   3846   3848     1  0.0000000  0.6508444  3
   3841   3840   3843   3846     1  0.0000000  0.6508444  3
   3841   3840   3843   3844     1  0.0000000  0.6508444  3
   3841   3840   3843   3845     1  0.0000000  0.6508444  3
   3842   3840   3843   3846     1  0.0000000  0.6508444  3
   3842   3840   3843   3844     1  0.0000000  0.6508444  3
   3842   3840   3843   3845     1  0.0000000  0.6508444  3
   3844   3843   3840   3870     1  0.0000000  1.0460000  1
   3844   3843   3840   3870     1  0.0000000  0.0000000  3
   3844   3843   3846   3849     1  0.0000000  0.6508444  3
   3844   3843   3846   3847     1  0.0000000  0.6508444  3
   3844   3843   3846   3848     1  0.0000000  0.6508444  3
   3845   3843   3840   3870     1  0.0000000  1.0460000  1
   3845   3843   3840   3870     1  0.0000000  0.0000000  3
   3845   3843   3846   3849     1  0.0000000  0.6508444  3
   3845   3843   3846   3847     1  0.0000000  0.6508444  3
   3845   3843   3846   3848     1  0.0000000  0.6508444  3
   3846   3849   3850   3851     1  0.0000000  1.2552000  3
   3846   3849   3850   3852     1  0.0000000  1.2552000  3
   3846   3849   3860   3861     1  0.0000000  1.2552000  3
   3846   3849   3860   3862     1  0.0000000  1.2552000  3
   3847   3846   3849   3850     1  0.0000000  1.2552000  3
   3847   3846   3849   3860     1  0.0000000  1.2552000  3
   3848   3846   3849   3850     1  0.0000000  1.2552000  3
   3848   3846   3849   3860     1  0.0000000  1.2552000  3
   3849   3850   3853   3854     1  0.0000000  0.6508444  3
   3849   3850   3853   3855     1  0.0000000  0.6508444  3
   3849   3860   3863   3864     1  0.0000000  0.6508444  3
   3849   3860   3863   3865     1  0.0000000  0.6508444  3
   3850   3849   3860   3861     1  0.0000000  1.2552000  3
   3850   3849   3860   3862     1  0.0000000  1.2552000  3
   3851   3850   3849   3860     1  0.0000000  1.2552000  3
   3851   3850   3853   3856     1  0.0000000  0.6508444  3
   3851   3850   3853   3854     1  0.0000000  0.6508444  3
   3851   3850   3853   3855     1  0.0000000  0.6508444  3
   3852   3850   3849   3860     1  0.0000000  1.2552000  3
   3852   3850   3853   3856     1  0.0000000  0.6508444  3
   3852   3850   3853   3854     1  0.0000000  0.6508444  3
   3852   3850   3853   3855     1  0.0000000  0.6508444  3
   3853   3856   3858   3859     1  180.0000771  9.6232000  2
   3854   3853   3856   3857     1  0.0000000  3.3472000  1
   3854   3853   3856   3857     1  0.0000000  0.0000000  2
   3854   3853   3856   3857     1  180.0000771  0.3347200  3
   3854   3853   3856   3858     1  180.0000771  0.0000000  2
   3855   3853   3856   3857     1  0.0000000  3.3472000  1
   3855   3853   3856   3857     1  0.0000000  0.0000000  2
   3855   3853   3856   3857     1  180.0000771  0.3347200  3
   3855   3853   3856   3858     1  180.0000771  0.0000000  2
   3857   3856   3858   3859     1  0.0000000  7.9496000  1
   3857   3856   3858   3859     1  180.0000771  9.6232000  2
   3861   3860   3863   3866     1  0.0000000  0.6508444  3
   3861   3860   3863   3864     1  0.0000000  0.6508444  3
   3861   3860   3863   3865     1  0.0000000  0.6508444  3
   3862   3860   3863   3866     1  0.0000000  0.6508444  3
   3862   3860   3863   3864     1  0.0000000  0.6508444  3
   3862   3860   3863   3865     1  0.0000000  0.6508444  3
   3863   3866   3868   3869     1  180.0000771  9.6232000  2
   3864   3863   3866   3867     1  0.0000000  3.3472000  1
   3864   3863   3866   3867     1  0.0000000  0.0000000  2
   3864   3863   3866   3867     1  180.0000771  0.3347200  3
   3864   3863   3866   3868     1  180.0000771  0.0000000  2
   3865   3863   3866   3867     1  0.0000000  3.3472000  1
   3865   3863   3866   3867     1  0.0000000  0.0000000  2
   3865   3863   3866   3867     1  180.0000771  0.3347200  3
   3865   3863   3866   3868     1  180.0000771  0.0000000  2
   3867   3866   3868   3869     1  0.0000000  7.9496000  1
   3867   3866   3868   3869     1  180.0000771  9.6232000  2
   3871   3874   3877   3878     1  0.0000000  0.6508444  3
   3871   3874   3877   3879     1  0.0000000  0.6508444  3
   3872   3871   3874   3877     1  0.0000000  0.6508444  3
   3872   3871   3874   3875     1  0.0000000  0.6508444  3
   3872   3871   3874   3876     1  0.0000000  0.6508444  3
   3873   3871   3874   3877     1  0.0000000  0.6508444  3
   3873   3871   3874   3875     1  0.0000000  0.6508444  3
   3873   3871   3874   3876     1  0.0000000  0.6508444  3
   3875   3874   3877   3880     1  0.0000000  0.6508444  3
   3875   3874   3877   3878     1  0.0000000  0.6508444  3
   3875   3874   3877   3879     1  0.0000000  0.6508444  3
   3875   3874   3871   3901     1  0.0000000  1.0460000  1
   3875   3874   3871   3901     1  0.0000000  0.0000000  3
   3876   3874   3877   3880     1  0.0000000  0.6508444  3
   3876   3874   3877   3878     1  0.0000000  0.6508444  3
   3876   3874   3877   3879     1  0.0000000  0.6508444  3
   3876   3874   3871   3901     1  0.0000000  1.0460000  1
   3876   3874   3871   3901     1  0.0000000  0.0000000  3
   3877   3880   3881   3882     1  0.0000000  1.2552000  3
   3877   3880   3881   3883     1  0.0000000  1.2552000  3
   3877   3880   3891   3892     1  0.0000000  1.2552000  3
   3877   3880   3891   3893     1  0.0000000  1.2552000  3
   3878   3877   3880   3881     1  0.0000000  1.2552000  3
   3878   3877   3880   3891     1  0.0000000  1.2552000  3
   3879   3877   3880   3881     1  0.0000000  1.2552000  3
   3879   3877   3880   3891     1  0.0000000  1.2552000  3
   3880   3881   3884   3885     1  0.0000000  0.6508444  3
   3880   3881   3884   3886     1  0.0000000  0.6508444  3
   3880   3891   3894   3895     1  0.0000000  0.6508444  3
   3880   3891   3894   3896     1  0.0000000  0.6508444  3
   3881   3880   3891   3892     1  0.0000000  1.2552000  3
   3881   3880   3891   3893     1  0.0000000  1.2552000  3
   3882   3881   3884   3887     1  0.0000000  0.6508444  3
   3882   3881   3884   3885     1  0.0000000  0.6508444  3
   3882   3881   3884   3886     1  0.0000000  0.6508444  3
   3882   3881   3880   3891     1  0.0000000  1.2552000  3
   3883   3881   3884   3887     1  0.0000000  0.6508444  3
   3883   3881   3884   3885     1  0.0000000  0.6508444  3
   3883   3881   3884   3886     1  0.0000000  0.6508444  3
   3883   3881   3880   3891     1  0.0000000  1.2552000  3
   3884   3887   3889   3890     1  180.0000771  9.6232000  2
   3885   3884   3887   3888     1  0.0000000  3.3472000  1
   3885   3884   3887   3888     1  0.0000000  0.0000000  2
   3885   3884   3887   3888     1  180.0000771  0.3347200  3
   3885   3884   3887   3889     1  180.0000771  0.0000000  2
   3886   3884   3887   3888     1  0.0000000  3.3472000  1
   3886   3884   3887   3888     1  0.0000000  0.0000000  2
   3886   3884   3887   3888     1  180.0000771  0.3347200  3
   3886   3884   3887   3889     1  180.0000771  0.0000000  2
   3888   3887   3889   3890     1  0.0000000  7.9496000  1
   3888   3887   3889   3890     1  180.0000771  9.6232000  2
   3892   3891   3894   3897     1  0.0000000  0.6508444  3
   3892   3891   3894   3895     1  0.0000000  0.6508444  3
   3892   3891   3894   3896     1  0.0000000  0.6508444  3
   3893   3891   3894   3897     1  0.0000000  0.6508444  3
   3893   3891   3894   3895     1  0.0000000  0.6508444  3
   3893   3891   3894   3896     1  0.0000000  0.6508444  3
   3894   3897   3899   3900     1  180.0000771  9.6232000  2
   3895   3894   3897   3898     1  0.0000000  3.3472000  1
   3895   3894   3897   3898     1  0.0000000  0.0000000  2
   3895   3894   3897   3898     1  180.0000771  0.3347200  3
   3895   3894   3897   3899     1  180.0000771  0.0000000  2
   3896   3894   3897   3898     1  0.0000000  3.3472000  1
   3896   3894   3897   3898     1  0.0000000  0.0000000  2
   3896   3894   3897   3898     1  180.0000771  0.3347200  3
   3896   3894   3897   3899     1  180.0000771  0.0000000  2
   3898   3897   3899   3900     1  0.0000000  7.9496000  1
   3898   3897   3899   3900     1  180.0000771  9.6232000  2
   3902   3905   3908   3909     1  0.0000000  0.6508444  3
   3902   3905   3908   3910     1  0.0000000  0.6508444  3
   3903   3902   3905   3908     1  0.0000000  0.6508444  3
   3903   3902   3905   3906     1  0.0000000  0.6508444  3
   3903   3902   3905   3907     1  0.0000000  0.6508444  3
   3904   3902   3905   3908     1  0.0000000  0.6508444  3
   3904   3902   3905   3906     1  0.0000000  0.6508444  3
   3904   3902   3905   3907     1  0.0000000  0.6508444  3
   3906   3905   3902   3932     1  0.0000000  1.0460000  1
   3906   3905   3902   3932     1  0.0000000  0.0000000  3
   3906   3905   3908   3911     1  0.0000000  0.6508444  3
   3906   3905   3908   3909     1  0.0000000  0.6508444  3
   3906   3905   3908   3910     1  0.0000000  0.6508444  3
   3907   3905   3902   3932     1  0.0000000  1.0460000  1
   3907   3905   3902   3932     1  0.0000000  0.0000000  3
   3907   3905   3908   3911     1  0.0000000  0.6508444  3
   3907   3905   3908   3909     1  0.0000000  0.6508444  3
   3907   3905   3908   3910     1  0.0000000  0.6508444  3
   3908   3911   3912   3913     1  0.0000000  1.2552000  3
   3908   3911   3912   3914     1  0.0000000  1.2552000  3
   3908   3911   3922   3923     1  0.0000000  1.2552000  3
   3908   3911   3922   3924     1  0.0000000  1.2552000  3
   3909   3908   3911   3912     1  0.0000000  1.2552000  3
   3909   3908   3911   3922     1  0.0000000  1.2552000  3
   3910   3908   3911   3912     1  0.0000000  1.2552000  3
   3910   3908   3911   3922     1  0.0000000  1.2552000  3
   3911   3912   3915   3916     1  0.0000000  0.6508444  3
   3911   3912   3915   3917     1  0.0000000  0.6508444  3
   3911   3922   3925   3926     1  0.0000000  0.6508444  3
   3911   3922   3925   3927     1  0.0000000  0.6508444  3
   3912   3911   3922   3923     1  0.0000000  1.2552000  3
   3912   3911   3922   3924     1  0.0000000  1.2552000  3
   3913   3912   3911   3922     1  0.0000000  1.2552000  3
   3913   3912   3915   3918     1  0.0000000  0.6508444  3
   3913   3912   3915   3916     1  0.0000000  0.6508444  3
   3913   3912   3915   3917     1  0.0000000  0.6508444  3
   3914   3912   3911   3922     1  0.0000000  1.2552000  3
   3914   3912   3915   3918     1  0.0000000  0.6508444  3
   3914   3912   3915   3916     1  0.0000000  0.6508444  3
   3914   3912   3915   3917     1  0.0000000  0.6508444  3
   3915   3918   3920   3921     1  180.0000771  9.6232000  2
   3916   3915   3918   3919     1  0.0000000  3.3472000  1
   3916   3915   3918   3919     1  0.0000000  0.0000000  2
   3916   3915   3918   3919     1  180.0000771  0.3347200  3
   3916   3915   3918   3920     1  180.0000771  0.0000000  2
   3917   3915   3918   3919     1  0.0000000  3.3472000  1
   3917   3915   3918   3919     1  0.0000000  0.0000000  2
   3917   3915   3918   3919     1  180.0000771  0.3347200  3
   3917   3915   3918   3920     1  180.0000771  0.0000000  2
   3919   3918   3920   3921     1  0.0000000  7.9496000  1
   3919   3918   3920   3921     1  180.0000771  9.6232000  2
   3923   3922   3925   3928     1  0.0000000  0.6508444  3
   3923   3922   3925   3926     1  0.0000000  0.6508444  3
   3923   3922   3925   3927     1  0.0000000  0.6508444  3
   3924   3922   3925   3928     1  0.0000000  0.6508444  3
   3924   3922   3925   3926     1  0.0000000  0.6508444  3
   3924   3922   3925   3927     1  0.0000000  0.6508444  3
   3925   3928   3930   3931     1  180.0000771  9.6232000  2
   3926   3925   3928   3929     1  0.0000000  3.3472000  1
   3926   3925   3928   3929     1  0.0000000  0.0000000  2
   3926   3925   3928   3929     1  180.0000771  0.3347200  3
   3926   3925   3928   3930     1  180.0000771  0.0000000  2
   3927   3925   3928   3929     1  0.0000000  3.3472000  1
   3927   3925   3928   3929     1  0.0000000  0.0000000  2
   3927   3925   3928   3929     1  180.0000771  0.3347200  3
   3927   3925   3928   3930     1  180.0000771  0.0000000  2
   3929   3928   3930   3931     1  0.0000000  7.9496000  1
   3929   3928   3930   3931     1  180.0000771  9.6232000  2
   3933   3936   3939   3940     1  0.0000000  0.6508444  3
   3933   3936   3939   3941     1  0.0000000  0.6508444  3
   3934   3933   3936   3939     1  0.0000000  0.6508444  3
   3934   3933   3936   3937     1  0.0000000  0.6508444  3
   3934   3933   3936   3938     1  0.0000000  0.6508444  3
   3935   3933   3936   3939     1  0.0000000  0.6508444  3
   3935   3933   3936   3937     1  0.0000000  0.6508444  3
   3935   3933   3936   3938     1  0.0000000  0.6508444  3
   3937   3936   3939   3942     1  0.0000000  0.6508444  3
   3937   3936   3939   3940     1  0.0000000  0.6508444  3
   3937   3936   3939   3941     1  0.0000000  0.6508444  3
   3937   3936   3933   3963     1  0.0000000  1.0460000  1
   3937   3936   3933   3963     1  0.0000000  0.0000000  3
   3938   3936   3939   3942     1  0.0000000  0.6508444  3
   3938   3936   3939   3940     1  0.0000000  0.6508444  3
   3938   3936   3939   3941     1  0.0000000  0.6508444  3
   3938   3936   3933   3963     1  0.0000000  1.0460000  1
   3938   3936   3933   3963     1  0.0000000  0.0000000  3
   3939   3942   3943   3944     1  0.0000000  1.2552000  3
   3939   3942   3943   3945     1  0.0000000  1.2552000  3
   3939   3942   3953   3954     1  0.0000000  1.2552000  3
   3939   3942   3953   3955     1  0.0000000  1.2552000  3
   3940   3939   3942   3943     1  0.0000000  1.2552000  3
   3940   3939   3942   3953     1  0.0000000  1.2552000  3
   3941   3939   3942   3943     1  0.0000000  1.2552000  3
   3941   3939   3942   3953     1  0.0000000  1.2552000  3
   3942   3943   3946   3947     1  0.0000000  0.6508444  3
   3942   3943   3946   3948     1  0.0000000  0.6508444  3
   3942   3953   3956   3957     1  0.0000000  0.6508444  3
   3942   3953   3956   3958     1  0.0000000  0.6508444  3
   3943   3942   3953   3954     1  0.0000000  1.2552000  3
   3943   3942   3953   3955     1  0.0000000  1.2552000  3
   3944   3943   3946   3949     1  0.0000000  0.6508444  3
   3944   3943   3946   3947     1  0.0000000  0.6508444  3
   3944   3943   3946   3948     1  0.0000000  0.6508444  3
   3944   3943   3942   3953     1  0.0000000  1.2552000  3
   3945   3943   3946   3949     1  0.0000000  0.6508444  3
   3945   3943   3946   3947     1  0.0000000  0.6508444  3
   3945   3943   3946   3948     1  0.0000000  0.6508444  3
   3945   3943   3942   3953     1  0.0000000  1.2552000  3
   3946   3949   3951   3952     1  180.0000771  9.6232000  2
   3947   3946   3949   3950     1  0.0000000  3.3472000  1
   3947   3946   3949   3950     1  0.0000000  0.0000000  2
   3947   3946   3949   3950     1  180.0000771  0.3347200  3
   3947   3946   3949   3951     1  180.0000771  0.0000000  2
   3948   3946   3949   3950     1  0.0000000  3.3472000  1
   3948   3946   3949   3950     1  0.0000000  0.0000000  2
   3948   3946   3949   3950     1  180.0000771  0.3347200  3
   3948   3946   3949   3951     1  180.0000771  0.0000000  2
   3950   3949   3951   3952     1  0.0000000  7.9496000  1
   3950   3949   3951   3952     1  180.0000771  9.6232000  2
   3954   3953   3956   3959     1  0.0000000  0.6508444  3
   3954   3953   3956   3957     1  0.0000000  0.6508444  3
   3954   3953   3956   3958     1  0.0000000  0.6508444  3
   3955   3953   3956   3959     1  0.0000000  0.6508444  3
   3955   3953   3956   3957     1  0.0000000  0.6508444  3
   3955   3953   3956   3958     1  0.0000000  0.6508444  3
   3956   3959   3961   3962     1  180.0000771  9.6232000  2
   3957   3956   3959   3960     1  0.0000000  3.3472000  1
   3957   3956   3959   3960     1  0.0000000  0.0000000  2
   3957   3956   3959   3960     1  180.0000771  0.3347200  3
   3957   3956   3959   3961     1  180.0000771  0.0000000  2
   3958   3956   3959   3960     1  0.0000000  3.3472000  1
   3958   3956   3959   3960     1  0.0000000  0.0000000  2
   3958   3956   3959   3960     1  180.0000771  0.3347200  3
   3958   3956   3959   3961     1  180.0000771  0.0000000  2
   3960   3959   3961   3962     1  0.0000000  7.9496000  1
   3960   3959   3961   3962     1  180.0000771  9.6232000  2
   3964   3967   3970   3971     1  0.0000000  0.6508444  3
   3964   3967   3970   3972     1  0.0000000  0.6508444  3
   3965   3964   3967   3970     1  0.0000000  0.6508444  3
   3965   3964   3967   3968     1  0.0000000  0.6508444  3
   3965   3964   3967   3969     1  0.0000000  0.6508444  3
   3966   3964   3967   3970     1  0.0000000  0.6508444  3
   3966   3964   3967   3968     1  0.0000000  0.6508444  3
   3966   3964   3967   3969     1  0.0000000  0.6508444  3
   3968   3967   3964   3994     1  0.0000000  1.0460000  1
   3968   3967   3964   3994     1  0.0000000  0.0000000  3
   3968   3967   3970   3973     1  0.0000000  0.6508444  3
   3968   3967   3970   3971     1  0.0000000  0.6508444  3
   3968   3967   3970   3972     1  0.0000000  0.6508444  3
   3969   3967   3964   3994     1  0.0000000  1.0460000  1
   3969   3967   3964   3994     1  0.0000000  0.0000000  3
   3969   3967   3970   3973     1  0.0000000  0.6508444  3
   3969   3967   3970   3971     1  0.0000000  0.6508444  3
   3969   3967   3970   3972     1  0.0000000  0.6508444  3
   3970   3973   3974   3975     1  0.0000000  1.2552000  3
   3970   3973   3974   3976     1  0.0000000  1.2552000  3
   3970   3973   3984   3985     1  0.0000000  1.2552000  3
   3970   3973   3984   3986     1  0.0000000  1.2552000  3
   3971   3970   3973   3974     1  0.0000000  1.2552000  3
   3971   3970   3973   3984     1  0.0000000  1.2552000  3
   3972   3970   3973   3974     1  0.0000000  1.2552000  3
   3972   3970   3973   3984     1  0.0000000  1.2552000  3
   3973   3974   3977   3978     1  0.0000000  0.6508444  3
   3973   3974   3977   3979     1  0.0000000  0.6508444  3
   3973   3984   3987   3988     1  0.0000000  0.6508444  3
   3973   3984   3987   3989     1  0.0000000  0.6508444  3
   3974   3973   3984   3985     1  0.0000000  1.2552000  3
   3974   3973   3984   3986     1  0.0000000  1.2552000  3
   3975   3974   3973   3984     1  0.0000000  1.2552000  3
   3975   3974   3977   3980     1  0.0000000  0.6508444  3
   3975   3974   3977   3978     1  0.0000000  0.6508444  3
   3975   3974   3977   3979     1  0.0000000  0.6508444  3
   3976   3974   3973   3984     1  0.0000000  1.2552000  3
   3976   3974   3977   3980     1  0.0000000  0.6508444  3
   3976   3974   3977   3978     1  0.0000000  0.6508444  3
   3976   3974   3977   3979     1  0.0000000  0.6508444  3
   3977   3980   3982   3983     1  180.0000771  9.6232000  2
   3978   3977   3980   3981     1  0.0000000  3.3472000  1
   3978   3977   3980   3981     1  0.0000000  0.0000000  2
   3978   3977   3980   3981     1  180.0000771  0.3347200  3
   3978   3977   3980   3982     1  180.0000771  0.0000000  2
   3979   3977   3980   3981     1  0.0000000  3.3472000  1
   3979   3977   3980   3981     1  0.0000000  0.0000000  2
   3979   3977   3980   3981     1  180.0000771  0.3347200  3
   3979   3977   3980   3982     1  180.0000771  0.0000000  2
   3981   3980   3982   3983     1  0.0000000  7.9496000  1
   3981   3980   3982   3983     1  180.0000771  9.6232000  2
   3985   3984   3987   3990     1  0.0000000  0.6508444  3
   3985   3984   3987   3988     1  0.0000000  0.6508444  3
   3985   3984   3987   3989     1  0.0000000  0.6508444  3
   3986   3984   3987   3990     1  0.0000000  0.6508444  3
   3986   3984   3987   3988     1  0.0000000  0.6508444  3
   3986   3984   3987   3989     1  0.0000000  0.6508444  3
   3987   3990   3992   3993     1  180.0000771  9.6232000  2
   3988   3987   3990   3991     1  0.0000000  3.3472000  1
   3988   3987   3990   3991     1  0.0000000  0.0000000  2
   3988   3987   3990   3991     1  180.0000771  0.3347200  3
   3988   3987   3990   3992     1  180.0000771  0.0000000  2
   3989   3987   3990   3991     1  0.0000000  3.3472000  1
   3989   3987   3990   3991     1  0.0000000  0.0000000  2
   3989   3987   3990   3991     1  180.0000771  0.3347200  3
   3989   3987   3990   3992     1  180.0000771  0.0000000  2
   3991   3990   3992   3993     1  0.0000000  7.9496000  1
   3991   3990   3992   3993     1  180.0000771  9.6232000  2
   3995   3998   4001   4002     1  0.0000000  0.6508444  3
   3995   3998   4001   4003     1  0.0000000  0.6508444  3
   3996   3995   3998   4001     1  0.0000000  0.6508444  3
   3996   3995   3998   3999     1  0.0000000  0.6508444  3
   3996   3995   3998   4000     1  0.0000000  0.6508444  3
   3997   3995   3998   4001     1  0.0000000  0.6508444  3
   3997   3995   3998   3999     1  0.0000000  0.6508444  3
   3997   3995   3998   4000     1  0.0000000  0.6508444  3
   3999   3998   4001   4004     1  0.0000000  0.6508444  3
   3999   3998   4001   4002     1  0.0000000  0.6508444  3
   3999   3998   4001   4003     1  0.0000000  0.6508444  3
   3999   3998   3995   4025     1  0.0000000  1.0460000  1
   3999   3998   3995   4025     1  0.0000000  0.0000000  3
   4000   3998   4001   4004     1  0.0000000  0.6508444  3
   4000   3998   4001   4002     1  0.0000000  0.6508444  3
   4000   3998   4001   4003     1  0.0000000  0.6508444  3
   4000   3998   3995   4025     1  0.0000000  1.0460000  1
   4000   3998   3995   4025     1  0.0000000  0.0000000  3
   4001   4004   4005   4006     1  0.0000000  1.2552000  3
   4001   4004   4005   4007     1  0.0000000  1.2552000  3
   4001   4004   4015   4016     1  0.0000000  1.2552000  3
   4001   4004   4015   4017     1  0.0000000  1.2552000  3
   4002   4001   4004   4005     1  0.0000000  1.2552000  3
   4002   4001   4004   4015     1  0.0000000  1.2552000  3
   4003   4001   4004   4005     1  0.0000000  1.2552000  3
   4003   4001   4004   4015     1  0.0000000  1.2552000  3
   4004   4005   4008   4009     1  0.0000000  0.6508444  3
   4004   4005   4008   4010     1  0.0000000  0.6508444  3
   4004   4015   4018   4019     1  0.0000000  0.6508444  3
   4004   4015   4018   4020     1  0.0000000  0.6508444  3
   4005   4004   4015   4016     1  0.0000000  1.2552000  3
   4005   4004   4015   4017     1  0.0000000  1.2552000  3
   4006   4005   4008   4011     1  0.0000000  0.6508444  3
   4006   4005   4008   4009     1  0.0000000  0.6508444  3
   4006   4005   4008   4010     1  0.0000000  0.6508444  3
   4006   4005   4004   4015     1  0.0000000  1.2552000  3
   4007   4005   4008   4011     1  0.0000000  0.6508444  3
   4007   4005   4008   4009     1  0.0000000  0.6508444  3
   4007   4005   4008   4010     1  0.0000000  0.6508444  3
   4007   4005   4004   4015     1  0.0000000  1.2552000  3
   4008   4011   4013   4014     1  180.0000771  9.6232000  2
   4009   4008   4011   4012     1  0.0000000  3.3472000  1
   4009   4008   4011   4012     1  0.0000000  0.0000000  2
   4009   4008   4011   4012     1  180.0000771  0.3347200  3
   4009   4008   4011   4013     1  180.0000771  0.0000000  2
   4010   4008   4011   4012     1  0.0000000  3.3472000  1
   4010   4008   4011   4012     1  0.0000000  0.0000000  2
   4010   4008   4011   4012     1  180.0000771  0.3347200  3
   4010   4008   4011   4013     1  180.0000771  0.0000000  2
   4012   4011   4013   4014     1  0.0000000  7.9496000  1
   4012   4011   4013   4014     1  180.0000771  9.6232000  2
   4016   4015   4018   4021     1  0.0000000  0.6508444  3
   4016   4015   4018   4019     1  0.0000000  0.6508444  3
   4016   4015   4018   4020     1  0.0000000  0.6508444  3
   4017   4015   4018   4021     1  0.0000000  0.6508444  3
   4017   4015   4018   4019     1  0.0000000  0.6508444  3
   4017   4015   4018   4020     1  0.0000000  0.6508444  3
   4018   4021   4023   4024     1  180.0000771  9.6232000  2
   4019   4018   4021   4022     1  0.0000000  3.3472000  1
   4019   4018   4021   4022     1  0.0000000  0.0000000  2
   4019   4018   4021   4022     1  180.0000771  0.3347200  3
   4019   4018   4021   4023     1  180.0000771  0.0000000  2
   4020   4018   4021   4022     1  0.0000000  3.3472000  1
   4020   4018   4021   4022     1  0.0000000  0.0000000  2
   4020   4018   4021   4022     1  180.0000771  0.3347200  3
   4020   4018   4021   4023     1  180.0000771  0.0000000  2
   4022   4021   4023   4024     1  0.0000000  7.9496000  1
   4022   4021   4023   4024     1  180.0000771  9.6232000  2
   4026   4029   4032   4033     1  0.0000000  0.6508444  3
   4026   4029   4032   4034     1  0.0000000  0.6508444  3
   4027   4026   4029   4032     1  0.0000000  0.6508444  3
   4027   4026   4029   4030     1  0.0000000  0.6508444  3
   4027   4026   4029   4031     1  0.0000000  0.6508444  3
   4028   4026   4029   4032     1  0.0000000  0.6508444  3
   4028   4026   4029   4030     1  0.0000000  0.6508444  3
   4028   4026   4029   4031     1  0.0000000  0.6508444  3
   4030   4029   4026   4056     1  0.0000000  1.0460000  1
   4030   4029   4026   4056     1  0.0000000  0.0000000  3
   4030   4029   4032   4035     1  0.0000000  0.6508444  3
   4030   4029   4032   4033     1  0.0000000  0.6508444  3
   4030   4029   4032   4034     1  0.0000000  0.6508444  3
   4031   4029   4026   4056     1  0.0000000  1.0460000  1
   4031   4029   4026   4056     1  0.0000000  0.0000000  3
   4031   4029   4032   4035     1  0.0000000  0.6508444  3
   4031   4029   4032   4033     1  0.0000000  0.6508444  3
   4031   4029   4032   4034     1  0.0000000  0.6508444  3
   4032   4035   4036   4037     1  0.0000000  1.2552000  3
   4032   4035   4036   4038     1  0.0000000  1.2552000  3
   4032   4035   4046   4047     1  0.0000000  1.2552000  3
   4032   4035   4046   4048     1  0.0000000  1.2552000  3
   4033   4032   4035   4036     1  0.0000000  1.2552000  3
   4033   4032   4035   4046     1  0.0000000  1.2552000  3
   4034   4032   4035   4036     1  0.0000000  1.2552000  3
   4034   4032   4035   4046     1  0.0000000  1.2552000  3
   4035   4036   4039   4040     1  0.0000000  0.6508444  3
   4035   4036   4039   4041     1  0.0000000  0.6508444  3
   4035   4046   4049   4050     1  0.0000000  0.6508444  3
   4035   4046   4049   4051     1  0.0000000  0.6508444  3
   4036   4035   4046   4047     1  0.0000000  1.2552000  3
   4036   4035   4046   4048     1  0.0000000  1.2552000  3
   4037   4036   4035   4046     1  0.0000000  1.2552000  3
   4037   4036   4039   4042     1  0.0000000  0.6508444  3
   4037   4036   4039   4040     1  0.0000000  0.6508444  3
   4037   4036   4039   4041     1  0.0000000  0.6508444  3
   4038   4036   4035   4046     1  0.0000000  1.2552000  3
   4038   4036   4039   4042     1  0.0000000  0.6508444  3
   4038   4036   4039   4040     1  0.0000000  0.6508444  3
   4038   4036   4039   4041     1  0.0000000  0.6508444  3
   4039   4042   4044   4045     1  180.0000771  9.6232000  2
   4040   4039   4042   4043     1  0.0000000  3.3472000  1
   4040   4039   4042   4043     1  0.0000000  0.0000000  2
   4040   4039   4042   4043     1  180.0000771  0.3347200  3
   4040   4039   4042   4044     1  180.0000771  0.0000000  2
   4041   4039   4042   4043     1  0.0000000  3.3472000  1
   4041   4039   4042   4043     1  0.0000000  0.0000000  2
   4041   4039   4042   4043     1  180.0000771  0.3347200  3
   4041   4039   4042   4044     1  180.0000771  0.0000000  2
   4043   4042   4044   4045     1  0.0000000  7.9496000  1
   4043   4042   4044   4045     1  180.0000771  9.6232000  2
   4047   4046   4049   4052     1  0.0000000  0.6508444  3
   4047   4046   4049   4050     1  0.0000000  0.6508444  3
   4047   4046   4049   4051     1  0.0000000  0.6508444  3
   4048   4046   4049   4052     1  0.0000000  0.6508444  3
   4048   4046   4049   4050     1  0.0000000  0.6508444  3
   4048   4046   4049   4051     1  0.0000000  0.6508444  3
   4049   4052   4054   4055     1  180.0000771  9.6232000  2
   4050   4049   4052   4053     1  0.0000000  3.3472000  1
   4050   4049   4052   4053     1  0.0000000  0.0000000  2
   4050   4049   4052   4053     1  180.0000771  0.3347200  3
   4050   4049   4052   4054     1  180.0000771  0.0000000  2
   4051   4049   4052   4053     1  0.0000000  3.3472000  1
   4051   4049   4052   4053     1  0.0000000  0.0000000  2
   4051   4049   4052   4053     1  180.0000771  0.3347200  3
   4051   4049   4052   4054     1  180.0000771  0.0000000  2
   4053   4052   4054   4055     1  0.0000000  7.9496000  1
   4053   4052   4054   4055     1  180.0000771  9.6232000  2
   4057   4060   4063   4064     1  0.0000000  0.6508444  3
   4057   4060   4063   4065     1  0.0000000  0.6508444  3
   4058   4057   4060   4063     1  0.0000000  0.6508444  3
   4058   4057   4060   4061     1  0.0000000  0.6508444  3
   4058   4057   4060   4062     1  0.0000000  0.6508444  3
   4059   4057   4060   4063     1  0.0000000  0.6508444  3
   4059   4057   4060   4061     1  0.0000000  0.6508444  3
   4059   4057   4060   4062     1  0.0000000  0.6508444  3
   4061   4060   4063   4066     1  0.0000000  0.6508444  3
   4061   4060   4063   4064     1  0.0000000  0.6508444  3
   4061   4060   4063   4065     1  0.0000000  0.6508444  3
   4061   4060   4057   4087     1  0.0000000  1.0460000  1
   4061   4060   4057   4087     1  0.0000000  0.0000000  3
   4062   4060   4063   4066     1  0.0000000  0.6508444  3
   4062   4060   4063   4064     1  0.0000000  0.6508444  3
   4062   4060   4063   4065     1  0.0000000  0.6508444  3
   4062   4060   4057   4087     1  0.0000000  1.0460000  1
   4062   4060   4057   4087     1  0.0000000  0.0000000  3
   4063   4066   4067   4068     1  0.0000000  1.2552000  3
   4063   4066   4067   4069     1  0.0000000  1.2552000  3
   4063   4066   4077   4078     1  0.0000000  1.2552000  3
   4063   4066   4077   4079     1  0.0000000  1.2552000  3
   4064   4063   4066   4067     1  0.0000000  1.2552000  3
   4064   4063   4066   4077     1  0.0000000  1.2552000  3
   4065   4063   4066   4067     1  0.0000000  1.2552000  3
   4065   4063   4066   4077     1  0.0000000  1.2552000  3
   4066   4067   4070   4071     1  0.0000000  0.6508444  3
   4066   4067   4070   4072     1  0.0000000  0.6508444  3
   4066   4077   4080   4081     1  0.0000000  0.6508444  3
   4066   4077   4080   4082     1  0.0000000  0.6508444  3
   4067   4066   4077   4078     1  0.0000000  1.2552000  3
   4067   4066   4077   4079     1  0.0000000  1.2552000  3
   4068   4067   4070   4073     1  0.0000000  0.6508444  3
   4068   4067   4070   4071     1  0.0000000  0.6508444  3
   4068   4067   4070   4072     1  0.0000000  0.6508444  3
   4068   4067   4066   4077     1  0.0000000  1.2552000  3
   4069   4067   4070   4073     1  0.0000000  0.6508444  3
   4069   4067   4070   4071     1  0.0000000  0.6508444  3
   4069   4067   4070   4072     1  0.0000000  0.6508444  3
   4069   4067   4066   4077     1  0.0000000  1.2552000  3
   4070   4073   4075   4076     1  180.0000771  9.6232000  2
   4071   4070   4073   4074     1  0.0000000  3.3472000  1
   4071   4070   4073   4074     1  0.0000000  0.0000000  2
   4071   4070   4073   4074     1  180.0000771  0.3347200  3
   4071   4070   4073   4075     1  180.0000771  0.0000000  2
   4072   4070   4073   4074     1  0.0000000  3.3472000  1
   4072   4070   4073   4074     1  0.0000000  0.0000000  2
   4072   4070   4073   4074     1  180.0000771  0.3347200  3
   4072   4070   4073   4075     1  180.0000771  0.0000000  2
   4074   4073   4075   4076     1  0.0000000  7.9496000  1
   4074   4073   4075   4076     1  180.0000771  9.6232000  2
   4078   4077   4080   4083     1  0.0000000  0.6508444  3
   4078   4077   4080   4081     1  0.0000000  0.6508444  3
   4078   4077   4080   4082     1  0.0000000  0.6508444  3
   4079   4077   4080   4083     1  0.0000000  0.6508444  3
   4079   4077   4080   4081     1  0.0000000  0.6508444  3
   4079   4077   4080   4082     1  0.0000000  0.6508444  3
   4080   4083   4085   4086     1  180.0000771  9.6232000  2
   4081   4080   4083   4084     1  0.0000000  3.3472000  1
   4081   4080   4083   4084     1  0.0000000  0.0000000  2
   4081   4080   4083   4084     1  180.0000771  0.3347200  3
   4081   4080   4083   4085     1  180.0000771  0.0000000  2
   4082   4080   4083   4084     1  0.0000000  3.3472000  1
   4082   4080   4083   4084     1  0.0000000  0.0000000  2
   4082   4080   4083   4084     1  180.0000771  0.3347200  3
   4082   4080   4083   4085     1  180.0000771  0.0000000  2
   4084   4083   4085   4086     1  0.0000000  7.9496000  1
   4084   4083   4085   4086     1  180.0000771  9.6232000  2
   4088   4091   4094   4095     1  0.0000000  0.6508444  3
   4088   4091   4094   4096     1  0.0000000  0.6508444  3
   4089   4088   4091   4094     1  0.0000000  0.6508444  3
   4089   4088   4091   4092     1  0.0000000  0.6508444  3
   4089   4088   4091   4093     1  0.0000000  0.6508444  3
   4090   4088   4091   4094     1  0.0000000  0.6508444  3
   4090   4088   4091   4092     1  0.0000000  0.6508444  3
   4090   4088   4091   4093     1  0.0000000  0.6508444  3
   4092   4091   4088   4118     1  0.0000000  1.0460000  1
   4092   4091   4088   4118     1  0.0000000  0.0000000  3
   4092   4091   4094   4097     1  0.0000000  0.6508444  3
   4092   4091   4094   4095     1  0.0000000  0.6508444  3
   4092   4091   4094   4096     1  0.0000000  0.6508444  3
   4093   4091   4088   4118     1  0.0000000  1.0460000  1
   4093   4091   4088   4118     1  0.0000000  0.0000000  3
   4093   4091   4094   4097     1  0.0000000  0.6508444  3
   4093   4091   4094   4095     1  0.0000000  0.6508444  3
   4093   4091   4094   4096     1  0.0000000  0.6508444  3
   4094   4097   4098   4099     1  0.0000000  1.2552000  3
   4094   4097   4098   4100     1  0.0000000  1.2552000  3
   4094   4097   4108   4109     1  0.0000000  1.2552000  3
   4094   4097   4108   4110     1  0.0000000  1.2552000  3
   4095   4094   4097   4098     1  0.0000000  1.2552000  3
   4095   4094   4097   4108     1  0.0000000  1.2552000  3
   4096   4094   4097   4098     1  0.0000000  1.2552000  3
   4096   4094   4097   4108     1  0.0000000  1.2552000  3
   4097   4098   4101   4102     1  0.0000000  0.6508444  3
   4097   4098   4101   4103     1  0.0000000  0.6508444  3
   4097   4108   4111   4112     1  0.0000000  0.6508444  3
   4097   4108   4111   4113     1  0.0000000  0.6508444  3
   4098   4097   4108   4109     1  0.0000000  1.2552000  3
   4098   4097   4108   4110     1  0.0000000  1.2552000  3
   4099   4098   4097   4108     1  0.0000000  1.2552000  3
   4099   4098   4101   4104     1  0.0000000  0.6508444  3
   4099   4098   4101   4102     1  0.0000000  0.6508444  3
   4099   4098   4101   4103     1  0.0000000  0.6508444  3
   4100   4098   4097   4108     1  0.0000000  1.2552000  3
   4100   4098   4101   4104     1  0.0000000  0.6508444  3
   4100   4098   4101   4102     1  0.0000000  0.6508444  3
   4100   4098   4101   4103     1  0.0000000  0.6508444  3
   4101   4104   4106   4107     1  180.0000771  9.6232000  2
   4102   4101   4104   4105     1  0.0000000  3.3472000  1
   4102   4101   4104   4105     1  0.0000000  0.0000000  2
   4102   4101   4104   4105     1  180.0000771  0.3347200  3
   4102   4101   4104   4106     1  180.0000771  0.0000000  2
   4103   4101   4104   4105     1  0.0000000  3.3472000  1
   4103   4101   4104   4105     1  0.0000000  0.0000000  2
   4103   4101   4104   4105     1  180.0000771  0.3347200  3
   4103   4101   4104   4106     1  180.0000771  0.0000000  2
   4105   4104   4106   4107     1  0.0000000  7.9496000  1
   4105   4104   4106   4107     1  180.0000771  9.6232000  2
   4109   4108   4111   4114     1  0.0000000  0.6508444  3
   4109   4108   4111   4112     1  0.0000000  0.6508444  3
   4109   4108   4111   4113     1  0.0000000  0.6508444  3
   4110   4108   4111   4114     1  0.0000000  0.6508444  3
   4110   4108   4111   4112     1  0.0000000  0.6508444  3
   4110   4108   4111   4113     1  0.0000000  0.6508444  3
   4111   4114   4116   4117     1  180.0000771  9.6232000  2
   4112   4111   4114   4115     1  0.0000000  3.3472000  1
   4112   4111   4114   4115     1  0.0000000  0.0000000  2
   4112   4111   4114   4115     1  180.0000771  0.3347200  3
   4112   4111   4114   4116     1  180.0000771  0.0000000  2
   4113   4111   4114   4115     1  0.0000000  3.3472000  1
   4113   4111   4114   4115     1  0.0000000  0.0000000  2
   4113   4111   4114   4115     1  180.0000771  0.3347200  3
   4113   4111   4114   4116     1  180.0000771  0.0000000  2
   4115   4114   4116   4117     1  0.0000000  7.9496000  1
   4115   4114   4116   4117     1  180.0000771  9.6232000  2
   4119   4122   4125   4126     1  0.0000000  0.6508444  3
   4119   4122   4125   4127     1  0.0000000  0.6508444  3
   4120   4119   4122   4125     1  0.0000000  0.6508444  3
   4120   4119   4122   4123     1  0.0000000  0.6508444  3
   4120   4119   4122   4124     1  0.0000000  0.6508444  3
   4121   4119   4122   4125     1  0.0000000  0.6508444  3
   4121   4119   4122   4123     1  0.0000000  0.6508444  3
   4121   4119   4122   4124     1  0.0000000  0.6508444  3
   4123   4122   4125   4128     1  0.0000000  0.6508444  3
   4123   4122   4125   4126     1  0.0000000  0.6508444  3
   4123   4122   4125   4127     1  0.0000000  0.6508444  3
   4123   4122   4119   4149     1  0.0000000  1.0460000  1
   4123   4122   4119   4149     1  0.0000000  0.0000000  3
   4124   4122   4125   4128     1  0.0000000  0.6508444  3
   4124   4122   4125   4126     1  0.0000000  0.6508444  3
   4124   4122   4125   4127     1  0.0000000  0.6508444  3
   4124   4122   4119   4149     1  0.0000000  1.0460000  1
   4124   4122   4119   4149     1  0.0000000  0.0000000  3
   4125   4128   4129   4130     1  0.0000000  1.2552000  3
   4125   4128   4129   4131     1  0.0000000  1.2552000  3
   4125   4128   4139   4140     1  0.0000000  1.2552000  3
   4125   4128   4139   4141     1  0.0000000  1.2552000  3
   4126   4125   4128   4129     1  0.0000000  1.2552000  3
   4126   4125   4128   4139     1  0.0000000  1.2552000  3
   4127   4125   4128   4129     1  0.0000000  1.2552000  3
   4127   4125   4128   4139     1  0.0000000  1.2552000  3
   4128   4129   4132   4133     1  0.0000000  0.6508444  3
   4128   4129   4132   4134     1  0.0000000  0.6508444  3
   4128   4139   4142   4143     1  0.0000000  0.6508444  3
   4128   4139   4142   4144     1  0.0000000  0.6508444  3
   4129   4128   4139   4140     1  0.0000000  1.2552000  3
   4129   4128   4139   4141     1  0.0000000  1.2552000  3
   4130   4129   4132   4135     1  0.0000000  0.6508444  3
   4130   4129   4132   4133     1  0.0000000  0.6508444  3
   4130   4129   4132   4134     1  0.0000000  0.6508444  3
   4130   4129   4128   4139     1  0.0000000  1.2552000  3
   4131   4129   4132   4135     1  0.0000000  0.6508444  3
   4131   4129   4132   4133     1  0.0000000  0.6508444  3
   4131   4129   4132   4134     1  0.0000000  0.6508444  3
   4131   4129   4128   4139     1  0.0000000  1.2552000  3
   4132   4135   4137   4138     1  180.0000771  9.6232000  2
   4133   4132   4135   4136     1  0.0000000  3.3472000  1
   4133   4132   4135   4136     1  0.0000000  0.0000000  2
   4133   4132   4135   4136     1  180.0000771  0.3347200  3
   4133   4132   4135   4137     1  180.0000771  0.0000000  2
   4134   4132   4135   4136     1  0.0000000  3.3472000  1
   4134   4132   4135   4136     1  0.0000000  0.0000000  2
   4134   4132   4135   4136     1  180.0000771  0.3347200  3
   4134   4132   4135   4137     1  180.0000771  0.0000000  2
   4136   4135   4137   4138     1  0.0000000  7.9496000  1
   4136   4135   4137   4138     1  180.0000771  9.6232000  2
   4140   4139   4142   4145     1  0.0000000  0.6508444  3
   4140   4139   4142   4143     1  0.0000000  0.6508444  3
   4140   4139   4142   4144     1  0.0000000  0.6508444  3
   4141   4139   4142   4145     1  0.0000000  0.6508444  3
   4141   4139   4142   4143     1  0.0000000  0.6508444  3
   4141   4139   4142   4144     1  0.0000000  0.6508444  3
   4142   4145   4147   4148     1  180.0000771  9.6232000  2
   4143   4142   4145   4146     1  0.0000000  3.3472000  1
   4143   4142   4145   4146     1  0.0000000  0.0000000  2
   4143   4142   4145   4146     1  180.0000771  0.3347200  3
   4143   4142   4145   4147     1  180.0000771  0.0000000  2
   4144   4142   4145   4146     1  0.0000000  3.3472000  1
   4144   4142   4145   4146     1  0.0000000  0.0000000  2
   4144   4142   4145   4146     1  180.0000771  0.3347200  3
   4144   4142   4145   4147     1  180.0000771  0.0000000  2
   4146   4145   4147   4148     1  0.0000000  7.9496000  1
   4146   4145   4147   4148     1  180.0000771  9.6232000  2
   4150   4153   4156   4157     1  0.0000000  0.6508444  3
   4150   4153   4156   4158     1  0.0000000  0.6508444  3
   4151   4150   4153   4156     1  0.0000000  0.6508444  3
   4151   4150   4153   4154     1  0.0000000  0.6508444  3
   4151   4150   4153   4155     1  0.0000000  0.6508444  3
   4152   4150   4153   4156     1  0.0000000  0.6508444  3
   4152   4150   4153   4154     1  0.0000000  0.6508444  3
   4152   4150   4153   4155     1  0.0000000  0.6508444  3
   4154   4153   4150   4180     1  0.0000000  1.0460000  1
   4154   4153   4150   4180     1  0.0000000  0.0000000  3
   4154   4153   4156   4159     1  0.0000000  0.6508444  3
   4154   4153   4156   4157     1  0.0000000  0.6508444  3
   4154   4153   4156   4158     1  0.0000000  0.6508444  3
   4155   4153   4150   4180     1  0.0000000  1.0460000  1
   4155   4153   4150   4180     1  0.0000000  0.0000000  3
   4155   4153   4156   4159     1  0.0000000  0.6508444  3
   4155   4153   4156   4157     1  0.0000000  0.6508444  3
   4155   4153   4156   4158     1  0.0000000  0.6508444  3
   4156   4159   4160   4161     1  0.0000000  1.2552000  3
   4156   4159   4160   4162     1  0.0000000  1.2552000  3
   4156   4159   4170   4171     1  0.0000000  1.2552000  3
   4156   4159   4170   4172     1  0.0000000  1.2552000  3
   4157   4156   4159   4160     1  0.0000000  1.2552000  3
   4157   4156   4159   4170     1  0.0000000  1.2552000  3
   4158   4156   4159   4160     1  0.0000000  1.2552000  3
   4158   4156   4159   4170     1  0.0000000  1.2552000  3
   4159   4160   4163   4164     1  0.0000000  0.6508444  3
   4159   4160   4163   4165     1  0.0000000  0.6508444  3
   4159   4170   4173   4174     1  0.0000000  0.6508444  3
   4159   4170   4173   4175     1  0.0000000  0.6508444  3
   4160   4159   4170   4171     1  0.0000000  1.2552000  3
   4160   4159   4170   4172     1  0.0000000  1.2552000  3
   4161   4160   4159   4170     1  0.0000000  1.2552000  3
   4161   4160   4163   4166     1  0.0000000  0.6508444  3
   4161   4160   4163   4164     1  0.0000000  0.6508444  3
   4161   4160   4163   4165     1  0.0000000  0.6508444  3
   4162   4160   4159   4170     1  0.0000000  1.2552000  3
   4162   4160   4163   4166     1  0.0000000  0.6508444  3
   4162   4160   4163   4164     1  0.0000000  0.6508444  3
   4162   4160   4163   4165     1  0.0000000  0.6508444  3
   4163   4166   4168   4169     1  180.0000771  9.6232000  2
   4164   4163   4166   4167     1  0.0000000  3.3472000  1
   4164   4163   4166   4167     1  0.0000000  0.0000000  2
   4164   4163   4166   4167     1  180.0000771  0.3347200  3
   4164   4163   4166   4168     1  180.0000771  0.0000000  2
   4165   4163   4166   4167     1  0.0000000  3.3472000  1
   4165   4163   4166   4167     1  0.0000000  0.0000000  2
   4165   4163   4166   4167     1  180.0000771  0.3347200  3
   4165   4163   4166   4168     1  180.0000771  0.0000000  2
   4167   4166   4168   4169     1  0.0000000  7.9496000  1
   4167   4166   4168   4169     1  180.0000771  9.6232000  2
   4171   4170   4173   4176     1  0.0000000  0.6508444  3
   4171   4170   4173   4174     1  0.0000000  0.6508444  3
   4171   4170   4173   4175     1  0.0000000  0.6508444  3
   4172   4170   4173   4176     1  0.0000000  0.6508444  3
   4172   4170   4173   4174     1  0.0000000  0.6508444  3
   4172   4170   4173   4175     1  0.0000000  0.6508444  3
   4173   4176   4178   4179     1  180.0000771  9.6232000  2
   4174   4173   4176   4177     1  0.0000000  3.3472000  1
   4174   4173   4176   4177     1  0.0000000  0.0000000  2
   4174   4173   4176   4177     1  180.0000771  0.3347200  3
   4174   4173   4176   4178     1  180.0000771  0.0000000  2
   4175   4173   4176   4177     1  0.0000000  3.3472000  1
   4175   4173   4176   4177     1  0.0000000  0.0000000  2
   4175   4173   4176   4177     1  180.0000771  0.3347200  3
   4175   4173   4176   4178     1  180.0000771  0.0000000  2
   4177   4176   4178   4179     1  0.0000000  7.9496000  1
   4177   4176   4178   4179     1  180.0000771  9.6232000  2
   4181   4184   4187   4188     1  0.0000000  0.6508444  3
   4181   4184   4187   4189     1  0.0000000  0.6508444  3
   4182   4181   4184   4187     1  0.0000000  0.6508444  3
   4182   4181   4184   4185     1  0.0000000  0.6508444  3
   4182   4181   4184   4186     1  0.0000000  0.6508444  3
   4183   4181   4184   4187     1  0.0000000  0.6508444  3
   4183   4181   4184   4185     1  0.0000000  0.6508444  3
   4183   4181   4184   4186     1  0.0000000  0.6508444  3
   4185   4184   4187   4190     1  0.0000000  0.6508444  3
   4185   4184   4187   4188     1  0.0000000  0.6508444  3
   4185   4184   4187   4189     1  0.0000000  0.6508444  3
   4185   4184   4181   4211     1  0.0000000  1.0460000  1
   4185   4184   4181   4211     1  0.0000000  0.0000000  3
   4186   4184   4187   4190     1  0.0000000  0.6508444  3
   4186   4184   4187   4188     1  0.0000000  0.6508444  3
   4186   4184   4187   4189     1  0.0000000  0.6508444  3
   4186   4184   4181   4211     1  0.0000000  1.0460000  1
   4186   4184   4181   4211     1  0.0000000  0.0000000  3
   4187   4190   4191   4192     1  0.0000000  1.2552000  3
   4187   4190   4191   4193     1  0.0000000  1.2552000  3
   4187   4190   4201   4202     1  0.0000000  1.2552000  3
   4187   4190   4201   4203     1  0.0000000  1.2552000  3
   4188   4187   4190   4191     1  0.0000000  1.2552000  3
   4188   4187   4190   4201     1  0.0000000  1.2552000  3
   4189   4187   4190   4191     1  0.0000000  1.2552000  3
   4189   4187   4190   4201     1  0.0000000  1.2552000  3
   4190   4191   4194   4195     1  0.0000000  0.6508444  3
   4190   4191   4194   4196     1  0.0000000  0.6508444  3
   4190   4201   4204   4205     1  0.0000000  0.6508444  3
   4190   4201   4204   4206     1  0.0000000  0.6508444  3
   4191   4190   4201   4202     1  0.0000000  1.2552000  3
   4191   4190   4201   4203     1  0.0000000  1.2552000  3
   4192   4191   4194   4197     1  0.0000000  0.6508444  3
   4192   4191   4194   4195     1  0.0000000  0.6508444  3
   4192   4191   4194   4196     1  0.0000000  0.6508444  3
   4192   4191   4190   4201     1  0.0000000  1.2552000  3
   4193   4191   4194   4197     1  0.0000000  0.6508444  3
   4193   4191   4194   4195     1  0.0000000  0.6508444  3
   4193   4191   4194   4196     1  0.0000000  0.6508444  3
   4193   4191   4190   4201     1  0.0000000  1.2552000  3
   4194   4197   4199   4200     1  180.0000771  9.6232000  2
   4195   4194   4197   4198     1  0.0000000  3.3472000  1
   4195   4194   4197   4198     1  0.0000000  0.0000000  2
   4195   4194   4197   4198     1  180.0000771  0.3347200  3
   4195   4194   4197   4199     1  180.0000771  0.0000000  2
   4196   4194   4197   4198     1  0.0000000  3.3472000  1
   4196   4194   4197   4198     1  0.0000000  0.0000000  2
   4196   4194   4197   4198     1  180.0000771  0.3347200  3
   4196   4194   4197   4199     1  180.0000771  0.0000000  2
   4198   4197   4199   4200     1  0.0000000  7.9496000  1
   4198   4197   4199   4200     1  180.0000771  9.6232000  2
   4202   4201   4204   4207     1  0.0000000  0.6508444  3
   4202   4201   4204   4205     1  0.0000000  0.6508444  3
   4202   4201   4204   4206     1  0.0000000  0.6508444  3
   4203   4201   4204   4207     1  0.0000000  0.6508444  3
   4203   4201   4204   4205     1  0.0000000  0.6508444  3
   4203   4201   4204   4206     1  0.0000000  0.6508444  3
   4204   4207   4209   4210     1  180.0000771  9.6232000  2
   4205   4204   4207   4208     1  0.0000000  3.3472000  1
   4205   4204   4207   4208     1  0.0000000  0.0000000  2
   4205   4204   4207   4208     1  180.0000771  0.3347200  3
   4205   4204   4207   4209     1  180.0000771  0.0000000  2
   4206   4204   4207   4208     1  0.0000000  3.3472000  1
   4206   4204   4207   4208     1  0.0000000  0.0000000  2
   4206   4204   4207   4208     1  180.0000771  0.3347200  3
   4206   4204   4207   4209     1  180.0000771  0.0000000  2
   4208   4207   4209   4210     1  0.0000000  7.9496000  1
   4208   4207   4209   4210     1  180.0000771  9.6232000  2
   4212   4215   4218   4219     1  0.0000000  0.6508444  3
   4212   4215   4218   4220     1  0.0000000  0.6508444  3
   4213   4212   4215   4218     1  0.0000000  0.6508444  3
   4213   4212   4215   4216     1  0.0000000  0.6508444  3
   4213   4212   4215   4217     1  0.0000000  0.6508444  3
   4214   4212   4215   4218     1  0.0000000  0.6508444  3
   4214   4212   4215   4216     1  0.0000000  0.6508444  3
   4214   4212   4215   4217     1  0.0000000  0.6508444  3
   4216   4215   4212   4242     1  0.0000000  1.0460000  1
   4216   4215   4212   4242     1  0.0000000  0.0000000  3
   4216   4215   4218   4221     1  0.0000000  0.6508444  3
   4216   4215   4218   4219     1  0.0000000  0.6508444  3
   4216   4215   4218   4220     1  0.0000000  0.6508444  3
   4217   4215   4212   4242     1  0.0000000  1.0460000  1
   4217   4215   4212   4242     1  0.0000000  0.0000000  3
   4217   4215   4218   4221     1  0.0000000  0.6508444  3
   4217   4215   4218   4219     1  0.0000000  0.6508444  3
   4217   4215   4218   4220     1  0.0000000  0.6508444  3
   4218   4221   4222   4223     1  0.0000000  1.2552000  3
   4218   4221   4222   4224     1  0.0000000  1.2552000  3
   4218   4221   4232   4233     1  0.0000000  1.2552000  3
   4218   4221   4232   4234     1  0.0000000  1.2552000  3
   4219   4218   4221   4222     1  0.0000000  1.2552000  3
   4219   4218   4221   4232     1  0.0000000  1.2552000  3
   4220   4218   4221   4222     1  0.0000000  1.2552000  3
   4220   4218   4221   4232     1  0.0000000  1.2552000  3
   4221   4222   4225   4226     1  0.0000000  0.6508444  3
   4221   4222   4225   4227     1  0.0000000  0.6508444  3
   4221   4232   4235   4236     1  0.0000000  0.6508444  3
   4221   4232   4235   4237     1  0.0000000  0.6508444  3
   4222   4221   4232   4233     1  0.0000000  1.2552000  3
   4222   4221   4232   4234     1  0.0000000  1.2552000  3
   4223   4222   4221   4232     1  0.0000000  1.2552000  3
   4223   4222   4225   4228     1  0.0000000  0.6508444  3
   4223   4222   4225   4226     1  0.0000000  0.6508444  3
   4223   4222   4225   4227     1  0.0000000  0.6508444  3
   4224   4222   4221   4232     1  0.0000000  1.2552000  3
   4224   4222   4225   4228     1  0.0000000  0.6508444  3
   4224   4222   4225   4226     1  0.0000000  0.6508444  3
   4224   4222   4225   4227     1  0.0000000  0.6508444  3
   4225   4228   4230   4231     1  180.0000771  9.6232000  2
   4226   4225   4228   4229     1  0.0000000  3.3472000  1
   4226   4225   4228   4229     1  0.0000000  0.0000000  2
   4226   4225   4228   4229     1  180.0000771  0.3347200  3
   4226   4225   4228   4230     1  180.0000771  0.0000000  2
   4227   4225   4228   4229     1  0.0000000  3.3472000  1
   4227   4225   4228   4229     1  0.0000000  0.0000000  2
   4227   4225   4228   4229     1  180.0000771  0.3347200  3
   4227   4225   4228   4230     1  180.0000771  0.0000000  2
   4229   4228   4230   4231     1  0.0000000  7.9496000  1
   4229   4228   4230   4231     1  180.0000771  9.6232000  2
   4233   4232   4235   4238     1  0.0000000  0.6508444  3
   4233   4232   4235   4236     1  0.0000000  0.6508444  3
   4233   4232   4235   4237     1  0.0000000  0.6508444  3
   4234   4232   4235   4238     1  0.0000000  0.6508444  3
   4234   4232   4235   4236     1  0.0000000  0.6508444  3
   4234   4232   4235   4237     1  0.0000000  0.6508444  3
   4235   4238   4240   4241     1  180.0000771  9.6232000  2
   4236   4235   4238   4239     1  0.0000000  3.3472000  1
   4236   4235   4238   4239     1  0.0000000  0.0000000  2
   4236   4235   4238   4239     1  180.0000771  0.3347200  3
   4236   4235   4238   4240     1  180.0000771  0.0000000  2
   4237   4235   4238   4239     1  0.0000000  3.3472000  1
   4237   4235   4238   4239     1  0.0000000  0.0000000  2
   4237   4235   4238   4239     1  180.0000771  0.3347200  3
   4237   4235   4238   4240     1  180.0000771  0.0000000  2
   4239   4238   4240   4241     1  0.0000000  7.9496000  1
   4239   4238   4240   4241     1  180.0000771  9.6232000  2
   4243   4246   4249   4250     1  0.0000000  0.6508444  3
   4243   4246   4249   4251     1  0.0000000  0.6508444  3
   4244   4243   4246   4249     1  0.0000000  0.6508444  3
   4244   4243   4246   4247     1  0.0000000  0.6508444  3
   4244   4243   4246   4248     1  0.0000000  0.6508444  3
   4245   4243   4246   4249     1  0.0000000  0.6508444  3
   4245   4243   4246   4247     1  0.0000000  0.6508444  3
   4245   4243   4246   4248     1  0.0000000  0.6508444  3
   4247   4246   4249   4252     1  0.0000000  0.6508444  3
   4247   4246   4249   4250     1  0.0000000  0.6508444  3
   4247   4246   4249   4251     1  0.0000000  0.6508444  3
   4247   4246   4243   4273     1  0.0000000  1.0460000  1
   4247   4246   4243   4273     1  0.0000000  0.0000000  3
   4248   4246   4249   4252     1  0.0000000  0.6508444  3
   4248   4246   4249   4250     1  0.0000000  0.6508444  3
   4248   4246   4249   4251     1  0.0000000  0.6508444  3
   4248   4246   4243   4273     1  0.0000000  1.0460000  1
   4248   4246   4243   4273     1  0.0000000  0.0000000  3
   4249   4252   4253   4254     1  0.0000000  1.2552000  3
   4249   4252   4253   4255     1  0.0000000  1.2552000  3
   4249   4252   4263   4264     1  0.0000000  1.2552000  3
   4249   4252   4263   4265     1  0.0000000  1.2552000  3
   4250   4249   4252   4253     1  0.0000000  1.2552000  3
   4250   4249   4252   4263     1  0.0000000  1.2552000  3
   4251   4249   4252   4253     1  0.0000000  1.2552000  3
   4251   4249   4252   4263     1  0.0000000  1.2552000  3
   4252   4253   4256   4257     1  0.0000000  0.6508444  3
   4252   4253   4256   4258     1  0.0000000  0.6508444  3
   4252   4263   4266   4267     1  0.0000000  0.6508444  3
   4252   4263   4266   4268     1  0.0000000  0.6508444  3
   4253   4252   4263   4264     1  0.0000000  1.2552000  3
   4253   4252   4263   4265     1  0.0000000  1.2552000  3
   4254   4253   4256   4259     1  0.0000000  0.6508444  3
   4254   4253   4256   4257     1  0.0000000  0.6508444  3
   4254   4253   4256   4258     1  0.0000000  0.6508444  3
   4254   4253   4252   4263     1  0.0000000  1.2552000  3
   4255   4253   4256   4259     1  0.0000000  0.6508444  3
   4255   4253   4256   4257     1  0.0000000  0.6508444  3
   4255   4253   4256   4258     1  0.0000000  0.6508444  3
   4255   4253   4252   4263     1  0.0000000  1.2552000  3
   4256   4259   4261   4262     1  180.0000771  9.6232000  2
   4257   4256   4259   4260     1  0.0000000  3.3472000  1
   4257   4256   4259   4260     1  0.0000000  0.0000000  2
   4257   4256   4259   4260     1  180.0000771  0.3347200  3
   4257   4256   4259   4261     1  180.0000771  0.0000000  2
   4258   4256   4259   4260     1  0.0000000  3.3472000  1
   4258   4256   4259   4260     1  0.0000000  0.0000000  2
   4258   4256   4259   4260     1  180.0000771  0.3347200  3
   4258   4256   4259   4261     1  180.0000771  0.0000000  2
   4260   4259   4261   4262     1  0.0000000  7.9496000  1
   4260   4259   4261   4262     1  180.0000771  9.6232000  2
   4264   4263   4266   4269     1  0.0000000  0.6508444  3
   4264   4263   4266   4267     1  0.0000000  0.6508444  3
   4264   4263   4266   4268     1  0.0000000  0.6508444  3
   4265   4263   4266   4269     1  0.0000000  0.6508444  3
   4265   4263   4266   4267     1  0.0000000  0.6508444  3
   4265   4263   4266   4268     1  0.0000000  0.6508444  3
   4266   4269   4271   4272     1  180.0000771  9.6232000  2
   4267   4266   4269   4270     1  0.0000000  3.3472000  1
   4267   4266   4269   4270     1  0.0000000  0.0000000  2
   4267   4266   4269   4270     1  180.0000771  0.3347200  3
   4267   4266   4269   4271     1  180.0000771  0.0000000  2
   4268   4266   4269   4270     1  0.0000000  3.3472000  1
   4268   4266   4269   4270     1  0.0000000  0.0000000  2
   4268   4266   4269   4270     1  180.0000771  0.3347200  3
   4268   4266   4269   4271     1  180.0000771  0.0000000  2
   4270   4269   4271   4272     1  0.0000000  7.9496000  1
   4270   4269   4271   4272     1  180.0000771  9.6232000  2
   4274   4277   4280   4281     1  0.0000000  0.6508444  3
   4274   4277   4280   4282     1  0.0000000  0.6508444  3
   4275   4274   4277   4280     1  0.0000000  0.6508444  3
   4275   4274   4277   4278     1  0.0000000  0.6508444  3
   4275   4274   4277   4279     1  0.0000000  0.6508444  3
   4276   4274   4277   4280     1  0.0000000  0.6508444  3
   4276   4274   4277   4278     1  0.0000000  0.6508444  3
   4276   4274   4277   4279     1  0.0000000  0.6508444  3
   4278   4277   4274   4304     1  0.0000000  1.0460000  1
   4278   4277   4274   4304     1  0.0000000  0.0000000  3
   4278   4277   4280   4283     1  0.0000000  0.6508444  3
   4278   4277   4280   4281     1  0.0000000  0.6508444  3
   4278   4277   4280   4282     1  0.0000000  0.6508444  3
   4279   4277   4274   4304     1  0.0000000  1.0460000  1
   4279   4277   4274   4304     1  0.0000000  0.0000000  3
   4279   4277   4280   4283     1  0.0000000  0.6508444  3
   4279   4277   4280   4281     1  0.0000000  0.6508444  3
   4279   4277   4280   4282     1  0.0000000  0.6508444  3
   4280   4283   4284   4285     1  0.0000000  1.2552000  3
   4280   4283   4284   4286     1  0.0000000  1.2552000  3
   4280   4283   4294   4295     1  0.0000000  1.2552000  3
   4280   4283   4294   4296     1  0.0000000  1.2552000  3
   4281   4280   4283   4284     1  0.0000000  1.2552000  3
   4281   4280   4283   4294     1  0.0000000  1.2552000  3
   4282   4280   4283   4284     1  0.0000000  1.2552000  3
   4282   4280   4283   4294     1  0.0000000  1.2552000  3
   4283   4284   4287   4288     1  0.0000000  0.6508444  3
   4283   4284   4287   4289     1  0.0000000  0.6508444  3
   4283   4294   4297   4298     1  0.0000000  0.6508444  3
   4283   4294   4297   4299     1  0.0000000  0.6508444  3
   4284   4283   4294   4295     1  0.0000000  1.2552000  3
   4284   4283   4294   4296     1  0.0000000  1.2552000  3
   4285   4284   4283   4294     1  0.0000000  1.2552000  3
   4285   4284   4287   4290     1  0.0000000  0.6508444  3
   4285   4284   4287   4288     1  0.0000000  0.6508444  3
   4285   4284   4287   4289     1  0.0000000  0.6508444  3
   4286   4284   4283   4294     1  0.0000000  1.2552000  3
   4286   4284   4287   4290     1  0.0000000  0.6508444  3
   4286   4284   4287   4288     1  0.0000000  0.6508444  3
   4286   4284   4287   4289     1  0.0000000  0.6508444  3
   4287   4290   4292   4293     1  180.0000771  9.6232000  2
   4288   4287   4290   4291     1  0.0000000  3.3472000  1
   4288   4287   4290   4291     1  0.0000000  0.0000000  2
   4288   4287   4290   4291     1  180.0000771  0.3347200  3
   4288   4287   4290   4292     1  180.0000771  0.0000000  2
   4289   4287   4290   4291     1  0.0000000  3.3472000  1
   4289   4287   4290   4291     1  0.0000000  0.0000000  2
   4289   4287   4290   4291     1  180.0000771  0.3347200  3
   4289   4287   4290   4292     1  180.0000771  0.0000000  2
   4291   4290   4292   4293     1  0.0000000  7.9496000  1
   4291   4290   4292   4293     1  180.0000771  9.6232000  2
   4295   4294   4297   4300     1  0.0000000  0.6508444  3
   4295   4294   4297   4298     1  0.0000000  0.6508444  3
   4295   4294   4297   4299     1  0.0000000  0.6508444  3
   4296   4294   4297   4300     1  0.0000000  0.6508444  3
   4296   4294   4297   4298     1  0.0000000  0.6508444  3
   4296   4294   4297   4299     1  0.0000000  0.6508444  3
   4297   4300   4302   4303     1  180.0000771  9.6232000  2
   4298   4297   4300   4301     1  0.0000000  3.3472000  1
   4298   4297   4300   4301     1  0.0000000  0.0000000  2
   4298   4297   4300   4301     1  180.0000771  0.3347200  3
   4298   4297   4300   4302     1  180.0000771  0.0000000  2
   4299   4297   4300   4301     1  0.0000000  3.3472000  1
   4299   4297   4300   4301     1  0.0000000  0.0000000  2
   4299   4297   4300   4301     1  180.0000771  0.3347200  3
   4299   4297   4300   4302     1  180.0000771  0.0000000  2
   4301   4300   4302   4303     1  0.0000000  7.9496000  1
   4301   4300   4302   4303     1  180.0000771  9.6232000  2
   4305   4308   4311   4312     1  0.0000000  0.6508444  3
   4305   4308   4311   4313     1  0.0000000  0.6508444  3
   4306   4305   4308   4311     1  0.0000000  0.6508444  3
   4306   4305   4308   4309     1  0.0000000  0.6508444  3
   4306   4305   4308   4310     1  0.0000000  0.6508444  3
   4307   4305   4308   4311     1  0.0000000  0.6508444  3
   4307   4305   4308   4309     1  0.0000000  0.6508444  3
   4307   4305   4308   4310     1  0.0000000  0.6508444  3
   4309   4308   4311   4314     1  0.0000000  0.6508444  3
   4309   4308   4311   4312     1  0.0000000  0.6508444  3
   4309   4308   4311   4313     1  0.0000000  0.6508444  3
   4309   4308   4305   4335     1  0.0000000  1.0460000  1
   4309   4308   4305   4335     1  0.0000000  0.0000000  3
   4310   4308   4311   4314     1  0.0000000  0.6508444  3
   4310   4308   4311   4312     1  0.0000000  0.6508444  3
   4310   4308   4311   4313     1  0.0000000  0.6508444  3
   4310   4308   4305   4335     1  0.0000000  1.0460000  1
   4310   4308   4305   4335     1  0.0000000  0.0000000  3
   4311   4314   4315   4316     1  0.0000000  1.2552000  3
   4311   4314   4315   4317     1  0.0000000  1.2552000  3
   4311   4314   4325   4326     1  0.0000000  1.2552000  3
   4311   4314   4325   4327     1  0.0000000  1.2552000  3
   4312   4311   4314   4315     1  0.0000000  1.2552000  3
   4312   4311   4314   4325     1  0.0000000  1.2552000  3
   4313   4311   4314   4315     1  0.0000000  1.2552000  3
   4313   4311   4314   4325     1  0.0000000  1.2552000  3
   4314   4315   4318   4319     1  0.0000000  0.6508444  3
   4314   4315   4318   4320     1  0.0000000  0.6508444  3
   4314   4325   4328   4329     1  0.0000000  0.6508444  3
   4314   4325   4328   4330     1  0.0000000  0.6508444  3
   4315   4314   4325   4326     1  0.0000000  1.2552000  3
   4315   4314   4325   4327     1  0.0000000  1.2552000  3
   4316   4315   4318   4321     1  0.0000000  0.6508444  3
   4316   4315   4318   4319     1  0.0000000  0.6508444  3
   4316   4315   4318   4320     1  0.0000000  0.6508444  3
   4316   4315   4314   4325     1  0.0000000  1.2552000  3
   4317   4315   4318   4321     1  0.0000000  0.6508444  3
   4317   4315   4318   4319     1  0.0000000  0.6508444  3
   4317   4315   4318   4320     1  0.0000000  0.6508444  3
   4317   4315   4314   4325     1  0.0000000  1.2552000  3
   4318   4321   4323   4324     1  180.0000771  9.6232000  2
   4319   4318   4321   4322     1  0.0000000  3.3472000  1
   4319   4318   4321   4322     1  0.0000000  0.0000000  2
   4319   4318   4321   4322     1  180.0000771  0.3347200  3
   4319   4318   4321   4323     1  180.0000771  0.0000000  2
   4320   4318   4321   4322     1  0.0000000  3.3472000  1
   4320   4318   4321   4322     1  0.0000000  0.0000000  2
   4320   4318   4321   4322     1  180.0000771  0.3347200  3
   4320   4318   4321   4323     1  180.0000771  0.0000000  2
   4322   4321   4323   4324     1  0.0000000  7.9496000  1
   4322   4321   4323   4324     1  180.0000771  9.6232000  2
   4326   4325   4328   4331     1  0.0000000  0.6508444  3
   4326   4325   4328   4329     1  0.0000000  0.6508444  3
   4326   4325   4328   4330     1  0.0000000  0.6508444  3
   4327   4325   4328   4331     1  0.0000000  0.6508444  3
   4327   4325   4328   4329     1  0.0000000  0.6508444  3
   4327   4325   4328   4330     1  0.0000000  0.6508444  3
   4328   4331   4333   4334     1  180.0000771  9.6232000  2
   4329   4328   4331   4332     1  0.0000000  3.3472000  1
   4329   4328   4331   4332     1  0.0000000  0.0000000  2
   4329   4328   4331   4332     1  180.0000771  0.3347200  3
   4329   4328   4331   4333     1  180.0000771  0.0000000  2
   4330   4328   4331   4332     1  0.0000000  3.3472000  1
   4330   4328   4331   4332     1  0.0000000  0.0000000  2
   4330   4328   4331   4332     1  180.0000771  0.3347200  3
   4330   4328   4331   4333     1  180.0000771  0.0000000  2
   4332   4331   4333   4334     1  0.0000000  7.9496000  1
   4332   4331   4333   4334     1  180.0000771  9.6232000  2
   4336   4339   4342   4343     1  0.0000000  0.6508444  3
   4336   4339   4342   4344     1  0.0000000  0.6508444  3
   4337   4336   4339   4342     1  0.0000000  0.6508444  3
   4337   4336   4339   4340     1  0.0000000  0.6508444  3
   4337   4336   4339   4341     1  0.0000000  0.6508444  3
   4338   4336   4339   4342     1  0.0000000  0.6508444  3
   4338   4336   4339   4340     1  0.0000000  0.6508444  3
   4338   4336   4339   4341     1  0.0000000  0.6508444  3
   4340   4339   4336   4366     1  0.0000000  1.0460000  1
   4340   4339   4336   4366     1  0.0000000  0.0000000  3
   4340   4339   4342   4345     1  0.0000000  0.6508444  3
   4340   4339   4342   4343     1  0.0000000  0.6508444  3
   4340   4339   4342   4344     1  0.0000000  0.6508444  3
   4341   4339   4336   4366     1  0.0000000  1.0460000  1
   4341   4339   4336   4366     1  0.0000000  0.0000000  3
   4341   4339   4342   4345     1  0.0000000  0.6508444  3
   4341   4339   4342   4343     1  0.0000000  0.6508444  3
   4341   4339   4342   4344     1  0.0000000  0.6508444  3
   4342   4345   4346   4347     1  0.0000000  1.2552000  3
   4342   4345   4346   4348     1  0.0000000  1.2552000  3
   4342   4345   4356   4357     1  0.0000000  1.2552000  3
   4342   4345   4356   4358     1  0.0000000  1.2552000  3
   4343   4342   4345   4346     1  0.0000000  1.2552000  3
   4343   4342   4345   4356     1  0.0000000  1.2552000  3
   4344   4342   4345   4346     1  0.0000000  1.2552000  3
   4344   4342   4345   4356     1  0.0000000  1.2552000  3
   4345   4346   4349   4350     1  0.0000000  0.6508444  3
   4345   4346   4349   4351     1  0.0000000  0.6508444  3
   4345   4356   4359   4360     1  0.0000000  0.6508444  3
   4345   4356   4359   4361     1  0.0000000  0.6508444  3
   4346   4345   4356   4357     1  0.0000000  1.2552000  3
   4346   4345   4356   4358     1  0.0000000  1.2552000  3
   4347   4346   4345   4356     1  0.0000000  1.2552000  3
   4347   4346   4349   4352     1  0.0000000  0.6508444  3
   4347   4346   4349   4350     1  0.0000000  0.6508444  3
   4347   4346   4349   4351     1  0.0000000  0.6508444  3
   4348   4346   4345   4356     1  0.0000000  1.2552000  3
   4348   4346   4349   4352     1  0.0000000  0.6508444  3
   4348   4346   4349   4350     1  0.0000000  0.6508444  3
   4348   4346   4349   4351     1  0.0000000  0.6508444  3
   4349   4352   4354   4355     1  180.0000771  9.6232000  2
   4350   4349   4352   4353     1  0.0000000  3.3472000  1
   4350   4349   4352   4353     1  0.0000000  0.0000000  2
   4350   4349   4352   4353     1  180.0000771  0.3347200  3
   4350   4349   4352   4354     1  180.0000771  0.0000000  2
   4351   4349   4352   4353     1  0.0000000  3.3472000  1
   4351   4349   4352   4353     1  0.0000000  0.0000000  2
   4351   4349   4352   4353     1  180.0000771  0.3347200  3
   4351   4349   4352   4354     1  180.0000771  0.0000000  2
   4353   4352   4354   4355     1  0.0000000  7.9496000  1
   4353   4352   4354   4355     1  180.0000771  9.6232000  2
   4357   4356   4359   4362     1  0.0000000  0.6508444  3
   4357   4356   4359   4360     1  0.0000000  0.6508444  3
   4357   4356   4359   4361     1  0.0000000  0.6508444  3
   4358   4356   4359   4362     1  0.0000000  0.6508444  3
   4358   4356   4359   4360     1  0.0000000  0.6508444  3
   4358   4356   4359   4361     1  0.0000000  0.6508444  3
   4359   4362   4364   4365     1  180.0000771  9.6232000  2
   4360   4359   4362   4363     1  0.0000000  3.3472000  1
   4360   4359   4362   4363     1  0.0000000  0.0000000  2
   4360   4359   4362   4363     1  180.0000771  0.3347200  3
   4360   4359   4362   4364     1  180.0000771  0.0000000  2
   4361   4359   4362   4363     1  0.0000000  3.3472000  1
   4361   4359   4362   4363     1  0.0000000  0.0000000  2
   4361   4359   4362   4363     1  180.0000771  0.3347200  3
   4361   4359   4362   4364     1  180.0000771  0.0000000  2
   4363   4362   4364   4365     1  0.0000000  7.9496000  1
   4363   4362   4364   4365     1  180.0000771  9.6232000  2
   4367   4370   4373   4374     1  0.0000000  0.6508444  3
   4367   4370   4373   4375     1  0.0000000  0.6508444  3
   4368   4367   4370   4373     1  0.0000000  0.6508444  3
   4368   4367   4370   4371     1  0.0000000  0.6508444  3
   4368   4367   4370   4372     1  0.0000000  0.6508444  3
   4369   4367   4370   4373     1  0.0000000  0.6508444  3
   4369   4367   4370   4371     1  0.0000000  0.6508444  3
   4369   4367   4370   4372     1  0.0000000  0.6508444  3
   4371   4370   4373   4376     1  0.0000000  0.6508444  3
   4371   4370   4373   4374     1  0.0000000  0.6508444  3
   4371   4370   4373   4375     1  0.0000000  0.6508444  3
   4371   4370   4367   4397     1  0.0000000  1.0460000  1
   4371   4370   4367   4397     1  0.0000000  0.0000000  3
   4372   4370   4373   4376     1  0.0000000  0.6508444  3
   4372   4370   4373   4374     1  0.0000000  0.6508444  3
   4372   4370   4373   4375     1  0.0000000  0.6508444  3
   4372   4370   4367   4397     1  0.0000000  1.0460000  1
   4372   4370   4367   4397     1  0.0000000  0.0000000  3
   4373   4376   4377   4378     1  0.0000000  1.2552000  3
   4373   4376   4377   4379     1  0.0000000  1.2552000  3
   4373   4376   4387   4388     1  0.0000000  1.2552000  3
   4373   4376   4387   4389     1  0.0000000  1.2552000  3
   4374   4373   4376   4377     1  0.0000000  1.2552000  3
   4374   4373   4376   4387     1  0.0000000  1.2552000  3
   4375   4373   4376   4377     1  0.0000000  1.2552000  3
   4375   4373   4376   4387     1  0.0000000  1.2552000  3
   4376   4377   4380   4381     1  0.0000000  0.6508444  3
   4376   4377   4380   4382     1  0.0000000  0.6508444  3
   4376   4387   4390   4391     1  0.0000000  0.6508444  3
   4376   4387   4390   4392     1  0.0000000  0.6508444  3
   4377   4376   4387   4388     1  0.0000000  1.2552000  3
   4377   4376   4387   4389     1  0.0000000  1.2552000  3
   4378   4377   4380   4383     1  0.0000000  0.6508444  3
   4378   4377   4380   4381     1  0.0000000  0.6508444  3
   4378   4377   4380   4382     1  0.0000000  0.6508444  3
   4378   4377   4376   4387     1  0.0000000  1.2552000  3
   4379   4377   4380   4383     1  0.0000000  0.6508444  3
   4379   4377   4380   4381     1  0.0000000  0.6508444  3
   4379   4377   4380   4382     1  0.0000000  0.6508444  3
   4379   4377   4376   4387     1  0.0000000  1.2552000  3
   4380   4383   4385   4386     1  180.0000771  9.6232000  2
   4381   4380   4383   4384     1  0.0000000  3.3472000  1
   4381   4380   4383   4384     1  0.0000000  0.0000000  2
   4381   4380   4383   4384     1  180.0000771  0.3347200  3
   4381   4380   4383   4385     1  180.0000771  0.0000000  2
   4382   4380   4383   4384     1  0.0000000  3.3472000  1
   4382   4380   4383   4384     1  0.0000000  0.0000000  2
   4382   4380   4383   4384     1  180.0000771  0.3347200  3
   4382   4380   4383   4385     1  180.0000771  0.0000000  2
   4384   4383   4385   4386     1  0.0000000  7.9496000  1
   4384   4383   4385   4386     1  180.0000771  9.6232000  2
   4388   4387   4390   4393     1  0.0000000  0.6508444  3
   4388   4387   4390   4391     1  0.0000000  0.6508444  3
   4388   4387   4390   4392     1  0.0000000  0.6508444  3
   4389   4387   4390   4393     1  0.0000000  0.6508444  3
   4389   4387   4390   4391     1  0.0000000  0.6508444  3
   4389   4387   4390   4392     1  0.0000000  0.6508444  3
   4390   4393   4395   4396     1  180.0000771  9.6232000  2
   4391   4390   4393   4394     1  0.0000000  3.3472000  1
   4391   4390   4393   4394     1  0.0000000  0.0000000  2
   4391   4390   4393   4394     1  180.0000771  0.3347200  3
   4391   4390   4393   4395     1  180.0000771  0.0000000  2
   4392   4390   4393   4394     1  0.0000000  3.3472000  1
   4392   4390   4393   4394     1  0.0000000  0.0000000  2
   4392   4390   4393   4394     1  180.0000771  0.3347200  3
   4392   4390   4393   4395     1  180.0000771  0.0000000  2
   4394   4393   4395   4396     1  0.0000000  7.9496000  1
   4394   4393   4395   4396     1  180.0000771  9.6232000  2
   4398   4401   4404   4405     1  0.0000000  0.6508444  3
   4398   4401   4404   4406     1  0.0000000  0.6508444  3
   4399   4398   4401   4404     1  0.0000000  0.6508444  3
   4399   4398   4401   4402     1  0.0000000  0.6508444  3
   4399   4398   4401   4403     1  0.0000000  0.6508444  3
   4400   4398   4401   4404     1  0.0000000  0.6508444  3
   4400   4398   4401   4402     1  0.0000000  0.6508444  3
   4400   4398   4401   4403     1  0.0000000  0.6508444  3
   4402   4401   4398   4428     1  0.0000000  1.0460000  1
   4402   4401   4398   4428     1  0.0000000  0.0000000  3
   4402   4401   4404   4407     1  0.0000000  0.6508444  3
   4402   4401   4404   4405     1  0.0000000  0.6508444  3
   4402   4401   4404   4406     1  0.0000000  0.6508444  3
   4403   4401   4398   4428     1  0.0000000  1.0460000  1
   4403   4401   4398   4428     1  0.0000000  0.0000000  3
   4403   4401   4404   4407     1  0.0000000  0.6508444  3
   4403   4401   4404   4405     1  0.0000000  0.6508444  3
   4403   4401   4404   4406     1  0.0000000  0.6508444  3
   4404   4407   4408   4409     1  0.0000000  1.2552000  3
   4404   4407   4408   4410     1  0.0000000  1.2552000  3
   4404   4407   4418   4419     1  0.0000000  1.2552000  3
   4404   4407   4418   4420     1  0.0000000  1.2552000  3
   4405   4404   4407   4408     1  0.0000000  1.2552000  3
   4405   4404   4407   4418     1  0.0000000  1.2552000  3
   4406   4404   4407   4408     1  0.0000000  1.2552000  3
   4406   4404   4407   4418     1  0.0000000  1.2552000  3
   4407   4408   4411   4412     1  0.0000000  0.6508444  3
   4407   4408   4411   4413     1  0.0000000  0.6508444  3
   4407   4418   4421   4422     1  0.0000000  0.6508444  3
   4407   4418   4421   4423     1  0.0000000  0.6508444  3
   4408   4407   4418   4419     1  0.0000000  1.2552000  3
   4408   4407   4418   4420     1  0.0000000  1.2552000  3
   4409   4408   4407   4418     1  0.0000000  1.2552000  3
   4409   4408   4411   4414     1  0.0000000  0.6508444  3
   4409   4408   4411   4412     1  0.0000000  0.6508444  3
   4409   4408   4411   4413     1  0.0000000  0.6508444  3
   4410   4408   4407   4418     1  0.0000000  1.2552000  3
   4410   4408   4411   4414     1  0.0000000  0.6508444  3
   4410   4408   4411   4412     1  0.0000000  0.6508444  3
   4410   4408   4411   4413     1  0.0000000  0.6508444  3
   4411   4414   4416   4417     1  180.0000771  9.6232000  2
   4412   4411   4414   4415     1  0.0000000  3.3472000  1
   4412   4411   4414   4415     1  0.0000000  0.0000000  2
   4412   4411   4414   4415     1  180.0000771  0.3347200  3
   4412   4411   4414   4416     1  180.0000771  0.0000000  2
   4413   4411   4414   4415     1  0.0000000  3.3472000  1
   4413   4411   4414   4415     1  0.0000000  0.0000000  2
   4413   4411   4414   4415     1  180.0000771  0.3347200  3
   4413   4411   4414   4416     1  180.0000771  0.0000000  2
   4415   4414   4416   4417     1  0.0000000  7.9496000  1
   4415   4414   4416   4417     1  180.0000771  9.6232000  2
   4419   4418   4421   4424     1  0.0000000  0.6508444  3
   4419   4418   4421   4422     1  0.0000000  0.6508444  3
   4419   4418   4421   4423     1  0.0000000  0.6508444  3
   4420   4418   4421   4424     1  0.0000000  0.6508444  3
   4420   4418   4421   4422     1  0.0000000  0.6508444  3
   4420   4418   4421   4423     1  0.0000000  0.6508444  3
   4421   4424   4426   4427     1  180.0000771  9.6232000  2
   4422   4421   4424   4425     1  0.0000000  3.3472000  1
   4422   4421   4424   4425     1  0.0000000  0.0000000  2
   4422   4421   4424   4425     1  180.0000771  0.3347200  3
   4422   4421   4424   4426     1  180.0000771  0.0000000  2
   4423   4421   4424   4425     1  0.0000000  3.3472000  1
   4423   4421   4424   4425     1  0.0000000  0.0000000  2
   4423   4421   4424   4425     1  180.0000771  0.3347200  3
   4423   4421   4424   4426     1  180.0000771  0.0000000  2
   4425   4424   4426   4427     1  0.0000000  7.9496000  1
   4425   4424   4426   4427     1  180.0000771  9.6232000  2
   4429   4432   4435   4436     1  0.0000000  0.6508444  3
   4429   4432   4435   4437     1  0.0000000  0.6508444  3
   4430   4429   4432   4435     1  0.0000000  0.6508444  3
   4430   4429   4432   4433     1  0.0000000  0.6508444  3
   4430   4429   4432   4434     1  0.0000000  0.6508444  3
   4431   4429   4432   4435     1  0.0000000  0.6508444  3
   4431   4429   4432   4433     1  0.0000000  0.6508444  3
   4431   4429   4432   4434     1  0.0000000  0.6508444  3
   4433   4432   4435   4438     1  0.0000000  0.6508444  3
   4433   4432   4435   4436     1  0.0000000  0.6508444  3
   4433   4432   4435   4437     1  0.0000000  0.6508444  3
   4433   4432   4429   4459     1  0.0000000  1.0460000  1
   4433   4432   4429   4459     1  0.0000000  0.0000000  3
   4434   4432   4435   4438     1  0.0000000  0.6508444  3
   4434   4432   4435   4436     1  0.0000000  0.6508444  3
   4434   4432   4435   4437     1  0.0000000  0.6508444  3
   4434   4432   4429   4459     1  0.0000000  1.0460000  1
   4434   4432   4429   4459     1  0.0000000  0.0000000  3
   4435   4438   4439   4440     1  0.0000000  1.2552000  3
   4435   4438   4439   4441     1  0.0000000  1.2552000  3
   4435   4438   4449   4450     1  0.0000000  1.2552000  3
   4435   4438   4449   4451     1  0.0000000  1.2552000  3
   4436   4435   4438   4439     1  0.0000000  1.2552000  3
   4436   4435   4438   4449     1  0.0000000  1.2552000  3
   4437   4435   4438   4439     1  0.0000000  1.2552000  3
   4437   4435   4438   4449     1  0.0000000  1.2552000  3
   4438   4439   4442   4443     1  0.0000000  0.6508444  3
   4438   4439   4442   4444     1  0.0000000  0.6508444  3
   4438   4449   4452   4453     1  0.0000000  0.6508444  3
   4438   4449   4452   4454     1  0.0000000  0.6508444  3
   4439   4438   4449   4450     1  0.0000000  1.2552000  3
   4439   4438   4449   4451     1  0.0000000  1.2552000  3
   4440   4439   4442   4445     1  0.0000000  0.6508444  3
   4440   4439   4442   4443     1  0.0000000  0.6508444  3
   4440   4439   4442   4444     1  0.0000000  0.6508444  3
   4440   4439   4438   4449     1  0.0000000  1.2552000  3
   4441   4439   4442   4445     1  0.0000000  0.6508444  3
   4441   4439   4442   4443     1  0.0000000  0.6508444  3
   4441   4439   4442   4444     1  0.0000000  0.6508444  3
   4441   4439   4438   4449     1  0.0000000  1.2552000  3
   4442   4445   4447   4448     1  180.0000771  9.6232000  2
   4443   4442   4445   4446     1  0.0000000  3.3472000  1
   4443   4442   4445   4446     1  0.0000000  0.0000000  2
   4443   4442   4445   4446     1  180.0000771  0.3347200  3
   4443   4442   4445   4447     1  180.0000771  0.0000000  2
   4444   4442   4445   4446     1  0.0000000  3.3472000  1
   4444   4442   4445   4446     1  0.0000000  0.0000000  2
   4444   4442   4445   4446     1  180.0000771  0.3347200  3
   4444   4442   4445   4447     1  180.0000771  0.0000000  2
   4446   4445   4447   4448     1  0.0000000  7.9496000  1
   4446   4445   4447   4448     1  180.0000771  9.6232000  2
   4450   4449   4452   4455     1  0.0000000  0.6508444  3
   4450   4449   4452   4453     1  0.0000000  0.6508444  3
   4450   4449   4452   4454     1  0.0000000  0.6508444  3
   4451   4449   4452   4455     1  0.0000000  0.6508444  3
   4451   4449   4452   4453     1  0.0000000  0.6508444  3
   4451   4449   4452   4454     1  0.0000000  0.6508444  3
   4452   4455   4457   4458     1  180.0000771  9.6232000  2
   4453   4452   4455   4456     1  0.0000000  3.3472000  1
   4453   4452   4455   4456     1  0.0000000  0.0000000  2
   4453   4452   4455   4456     1  180.0000771  0.3347200  3
   4453   4452   4455   4457     1  180.0000771  0.0000000  2
   4454   4452   4455   4456     1  0.0000000  3.3472000  1
   4454   4452   4455   4456     1  0.0000000  0.0000000  2
   4454   4452   4455   4456     1  180.0000771  0.3347200  3
   4454   4452   4455   4457     1  180.0000771  0.0000000  2
   4456   4455   4457   4458     1  0.0000000  7.9496000  1
   4456   4455   4457   4458     1  180.0000771  9.6232000  2
   4460   4463   4466   4467     1  0.0000000  0.6508444  3
   4460   4463   4466   4468     1  0.0000000  0.6508444  3
   4461   4460   4463   4466     1  0.0000000  0.6508444  3
   4461   4460   4463   4464     1  0.0000000  0.6508444  3
   4461   4460   4463   4465     1  0.0000000  0.6508444  3
   4462   4460   4463   4466     1  0.0000000  0.6508444  3
   4462   4460   4463   4464     1  0.0000000  0.6508444  3
   4462   4460   4463   4465     1  0.0000000  0.6508444  3
   4464   4463   4460   4490     1  0.0000000  1.0460000  1
   4464   4463   4460   4490     1  0.0000000  0.0000000  3
   4464   4463   4466   4469     1  0.0000000  0.6508444  3
   4464   4463   4466   4467     1  0.0000000  0.6508444  3
   4464   4463   4466   4468     1  0.0000000  0.6508444  3
   4465   4463   4460   4490     1  0.0000000  1.0460000  1
   4465   4463   4460   4490     1  0.0000000  0.0000000  3
   4465   4463   4466   4469     1  0.0000000  0.6508444  3
   4465   4463   4466   4467     1  0.0000000  0.6508444  3
   4465   4463   4466   4468     1  0.0000000  0.6508444  3
   4466   4469   4470   4471     1  0.0000000  1.2552000  3
   4466   4469   4470   4472     1  0.0000000  1.2552000  3
   4466   4469   4480   4481     1  0.0000000  1.2552000  3
   4466   4469   4480   4482     1  0.0000000  1.2552000  3
   4467   4466   4469   4470     1  0.0000000  1.2552000  3
   4467   4466   4469   4480     1  0.0000000  1.2552000  3
   4468   4466   4469   4470     1  0.0000000  1.2552000  3
   4468   4466   4469   4480     1  0.0000000  1.2552000  3
   4469   4470   4473   4474     1  0.0000000  0.6508444  3
   4469   4470   4473   4475     1  0.0000000  0.6508444  3
   4469   4480   4483   4484     1  0.0000000  0.6508444  3
   4469   4480   4483   4485     1  0.0000000  0.6508444  3
   4470   4469   4480   4481     1  0.0000000  1.2552000  3
   4470   4469   4480   4482     1  0.0000000  1.2552000  3
   4471   4470   4469   4480     1  0.0000000  1.2552000  3
   4471   4470   4473   4476     1  0.0000000  0.6508444  3
   4471   4470   4473   4474     1  0.0000000  0.6508444  3
   4471   4470   4473   4475     1  0.0000000  0.6508444  3
   4472   4470   4469   4480     1  0.0000000  1.2552000  3
   4472   4470   4473   4476     1  0.0000000  0.6508444  3
   4472   4470   4473   4474     1  0.0000000  0.6508444  3
   4472   4470   4473   4475     1  0.0000000  0.6508444  3
   4473   4476   4478   4479     1  180.0000771  9.6232000  2
   4474   4473   4476   4477     1  0.0000000  3.3472000  1
   4474   4473   4476   4477     1  0.0000000  0.0000000  2
   4474   4473   4476   4477     1  180.0000771  0.3347200  3
   4474   4473   4476   4478     1  180.0000771  0.0000000  2
   4475   4473   4476   4477     1  0.0000000  3.3472000  1
   4475   4473   4476   4477     1  0.0000000  0.0000000  2
   4475   4473   4476   4477     1  180.0000771  0.3347200  3
   4475   4473   4476   4478     1  180.0000771  0.0000000  2
   4477   4476   4478   4479     1  0.0000000  7.9496000  1
   4477   4476   4478   4479     1  180.0000771  9.6232000  2
   4481   4480   4483   4486     1  0.0000000  0.6508444  3
   4481   4480   4483   4484     1  0.0000000  0.6508444  3
   4481   4480   4483   4485     1  0.0000000  0.6508444  3
   4482   4480   4483   4486     1  0.0000000  0.6508444  3
   4482   4480   4483   4484     1  0.0000000  0.6508444  3
   4482   4480   4483   4485     1  0.0000000  0.6508444  3
   4483   4486   4488   4489     1  180.0000771  9.6232000  2
   4484   4483   4486   4487     1  0.0000000  3.3472000  1
   4484   4483   4486   4487     1  0.0000000  0.0000000  2
   4484   4483   4486   4487     1  180.0000771  0.3347200  3
   4484   4483   4486   4488     1  180.0000771  0.0000000  2
   4485   4483   4486   4487     1  0.0000000  3.3472000  1
   4485   4483   4486   4487     1  0.0000000  0.0000000  2
   4485   4483   4486   4487     1  180.0000771  0.3347200  3
   4485   4483   4486   4488     1  180.0000771  0.0000000  2
   4487   4486   4488   4489     1  0.0000000  7.9496000  1
   4487   4486   4488   4489     1  180.0000771  9.6232000  2
   4491   4494   4497   4498     1  0.0000000  0.6508444  3
   4491   4494   4497   4499     1  0.0000000  0.6508444  3
   4492   4491   4494   4497     1  0.0000000  0.6508444  3
   4492   4491   4494   4495     1  0.0000000  0.6508444  3
   4492   4491   4494   4496     1  0.0000000  0.6508444  3
   4493   4491   4494   4497     1  0.0000000  0.6508444  3
   4493   4491   4494   4495     1  0.0000000  0.6508444  3
   4493   4491   4494   4496     1  0.0000000  0.6508444  3
   4495   4494   4497   4500     1  0.0000000  0.6508444  3
   4495   4494   4497   4498     1  0.0000000  0.6508444  3
   4495   4494   4497   4499     1  0.0000000  0.6508444  3
   4495   4494   4491   4521     1  0.0000000  1.0460000  1
   4495   4494   4491   4521     1  0.0000000  0.0000000  3
   4496   4494   4497   4500     1  0.0000000  0.6508444  3
   4496   4494   4497   4498     1  0.0000000  0.6508444  3
   4496   4494   4497   4499     1  0.0000000  0.6508444  3
   4496   4494   4491   4521     1  0.0000000  1.0460000  1
   4496   4494   4491   4521     1  0.0000000  0.0000000  3
   4497   4500   4501   4502     1  0.0000000  1.2552000  3
   4497   4500   4501   4503     1  0.0000000  1.2552000  3
   4497   4500   4511   4512     1  0.0000000  1.2552000  3
   4497   4500   4511   4513     1  0.0000000  1.2552000  3
   4498   4497   4500   4501     1  0.0000000  1.2552000  3
   4498   4497   4500   4511     1  0.0000000  1.2552000  3
   4499   4497   4500   4501     1  0.0000000  1.2552000  3
   4499   4497   4500   4511     1  0.0000000  1.2552000  3
   4500   4501   4504   4505     1  0.0000000  0.6508444  3
   4500   4501   4504   4506     1  0.0000000  0.6508444  3
   4500   4511   4514   4515     1  0.0000000  0.6508444  3
   4500   4511   4514   4516     1  0.0000000  0.6508444  3
   4501   4500   4511   4512     1  0.0000000  1.2552000  3
   4501   4500   4511   4513     1  0.0000000  1.2552000  3
   4502   4501   4504   4507     1  0.0000000  0.6508444  3
   4502   4501   4504   4505     1  0.0000000  0.6508444  3
   4502   4501   4504   4506     1  0.0000000  0.6508444  3
   4502   4501   4500   4511     1  0.0000000  1.2552000  3
   4503   4501   4504   4507     1  0.0000000  0.6508444  3
   4503   4501   4504   4505     1  0.0000000  0.6508444  3
   4503   4501   4504   4506     1  0.0000000  0.6508444  3
   4503   4501   4500   4511     1  0.0000000  1.2552000  3
   4504   4507   4509   4510     1  180.0000771  9.6232000  2
   4505   4504   4507   4508     1  0.0000000  3.3472000  1
   4505   4504   4507   4508     1  0.0000000  0.0000000  2
   4505   4504   4507   4508     1  180.0000771  0.3347200  3
   4505   4504   4507   4509     1  180.0000771  0.0000000  2
   4506   4504   4507   4508     1  0.0000000  3.3472000  1
   4506   4504   4507   4508     1  0.0000000  0.0000000  2
   4506   4504   4507   4508     1  180.0000771  0.3347200  3
   4506   4504   4507   4509     1  180.0000771  0.0000000  2
   4508   4507   4509   4510     1  0.0000000  7.9496000  1
   4508   4507   4509   4510     1  180.0000771  9.6232000  2
   4512   4511   4514   4517     1  0.0000000  0.6508444  3
   4512   4511   4514   4515     1  0.0000000  0.6508444  3
   4512   4511   4514   4516     1  0.0000000  0.6508444  3
   4513   4511   4514   4517     1  0.0000000  0.6508444  3
   4513   4511   4514   4515     1  0.0000000  0.6508444  3
   4513   4511   4514   4516     1  0.0000000  0.6508444  3
   4514   4517   4519   4520     1  180.0000771  9.6232000  2
   4515   4514   4517   4518     1  0.0000000  3.3472000  1
   4515   4514   4517   4518     1  0.0000000  0.0000000  2
   4515   4514   4517   4518     1  180.0000771  0.3347200  3
   4515   4514   4517   4519     1  180.0000771  0.0000000  2
   4516   4514   4517   4518     1  0.0000000  3.3472000  1
   4516   4514   4517   4518     1  0.0000000  0.0000000  2
   4516   4514   4517   4518     1  180.0000771  0.3347200  3
   4516   4514   4517   4519     1  180.0000771  0.0000000  2
   4518   4517   4519   4520     1  0.0000000  7.9496000  1
   4518   4517   4519   4520     1  180.0000771  9.6232000  2
   4522   4525   4528   4529     1  0.0000000  0.6508444  3
   4522   4525   4528   4530     1  0.0000000  0.6508444  3
   4523   4522   4525   4528     1  0.0000000  0.6508444  3
   4523   4522   4525   4526     1  0.0000000  0.6508444  3
   4523   4522   4525   4527     1  0.0000000  0.6508444  3
   4524   4522   4525   4528     1  0.0000000  0.6508444  3
   4524   4522   4525   4526     1  0.0000000  0.6508444  3
   4524   4522   4525   4527     1  0.0000000  0.6508444  3
   4526   4525   4522   4552     1  0.0000000  1.0460000  1
   4526   4525   4522   4552     1  0.0000000  0.0000000  3
   4526   4525   4528   4531     1  0.0000000  0.6508444  3
   4526   4525   4528   4529     1  0.0000000  0.6508444  3
   4526   4525   4528   4530     1  0.0000000  0.6508444  3
   4527   4525   4522   4552     1  0.0000000  1.0460000  1
   4527   4525   4522   4552     1  0.0000000  0.0000000  3
   4527   4525   4528   4531     1  0.0000000  0.6508444  3
   4527   4525   4528   4529     1  0.0000000  0.6508444  3
   4527   4525   4528   4530     1  0.0000000  0.6508444  3
   4528   4531   4532   4533     1  0.0000000  1.2552000  3
   4528   4531   4532   4534     1  0.0000000  1.2552000  3
   4528   4531   4542   4543     1  0.0000000  1.2552000  3
   4528   4531   4542   4544     1  0.0000000  1.2552000  3
   4529   4528   4531   4532     1  0.0000000  1.2552000  3
   4529   4528   4531   4542     1  0.0000000  1.2552000  3
   4530   4528   4531   4532     1  0.0000000  1.2552000  3
   4530   4528   4531   4542     1  0.0000000  1.2552000  3
   4531   4532   4535   4536     1  0.0000000  0.6508444  3
   4531   4532   4535   4537     1  0.0000000  0.6508444  3
   4531   4542   4545   4546     1  0.0000000  0.6508444  3
   4531   4542   4545   4547     1  0.0000000  0.6508444  3
   4532   4531   4542   4543     1  0.0000000  1.2552000  3
   4532   4531   4542   4544     1  0.0000000  1.2552000  3
   4533   4532   4531   4542     1  0.0000000  1.2552000  3
   4533   4532   4535   4538     1  0.0000000  0.6508444  3
   4533   4532   4535   4536     1  0.0000000  0.6508444  3
   4533   4532   4535   4537     1  0.0000000  0.6508444  3
   4534   4532   4531   4542     1  0.0000000  1.2552000  3
   4534   4532   4535   4538     1  0.0000000  0.6508444  3
   4534   4532   4535   4536     1  0.0000000  0.6508444  3
   4534   4532   4535   4537     1  0.0000000  0.6508444  3
   4535   4538   4540   4541     1  180.0000771  9.6232000  2
   4536   4535   4538   4539     1  0.0000000  3.3472000  1
   4536   4535   4538   4539     1  0.0000000  0.0000000  2
   4536   4535   4538   4539     1  180.0000771  0.3347200  3
   4536   4535   4538   4540     1  180.0000771  0.0000000  2
   4537   4535   4538   4539     1  0.0000000  3.3472000  1
   4537   4535   4538   4539     1  0.0000000  0.0000000  2
   4537   4535   4538   4539     1  180.0000771  0.3347200  3
   4537   4535   4538   4540     1  180.0000771  0.0000000  2
   4539   4538   4540   4541     1  0.0000000  7.9496000  1
   4539   4538   4540   4541     1  180.0000771  9.6232000  2
   4543   4542   4545   4548     1  0.0000000  0.6508444  3
   4543   4542   4545   4546     1  0.0000000  0.6508444  3
   4543   4542   4545   4547     1  0.0000000  0.6508444  3
   4544   4542   4545   4548     1  0.0000000  0.6508444  3
   4544   4542   4545   4546     1  0.0000000  0.6508444  3
   4544   4542   4545   4547     1  0.0000000  0.6508444  3
   4545   4548   4550   4551     1  180.0000771  9.6232000  2
   4546   4545   4548   4549     1  0.0000000  3.3472000  1
   4546   4545   4548   4549     1  0.0000000  0.0000000  2
   4546   4545   4548   4549     1  180.0000771  0.3347200  3
   4546   4545   4548   4550     1  180.0000771  0.0000000  2
   4547   4545   4548   4549     1  0.0000000  3.3472000  1
   4547   4545   4548   4549     1  0.0000000  0.0000000  2
   4547   4545   4548   4549     1  180.0000771  0.3347200  3
   4547   4545   4548   4550     1  180.0000771  0.0000000  2
   4549   4548   4550   4551     1  0.0000000  7.9496000  1
   4549   4548   4550   4551     1  180.0000771  9.6232000  2
   4553   4556   4559   4560     1  0.0000000  0.6508444  3
   4553   4556   4559   4561     1  0.0000000  0.6508444  3
   4554   4553   4556   4559     1  0.0000000  0.6508444  3
   4554   4553   4556   4557     1  0.0000000  0.6508444  3
   4554   4553   4556   4558     1  0.0000000  0.6508444  3
   4555   4553   4556   4559     1  0.0000000  0.6508444  3
   4555   4553   4556   4557     1  0.0000000  0.6508444  3
   4555   4553   4556   4558     1  0.0000000  0.6508444  3
   4557   4556   4559   4562     1  0.0000000  0.6508444  3
   4557   4556   4559   4560     1  0.0000000  0.6508444  3
   4557   4556   4559   4561     1  0.0000000  0.6508444  3
   4557   4556   4553   4583     1  0.0000000  1.0460000  1
   4557   4556   4553   4583     1  0.0000000  0.0000000  3
   4558   4556   4559   4562     1  0.0000000  0.6508444  3
   4558   4556   4559   4560     1  0.0000000  0.6508444  3
   4558   4556   4559   4561     1  0.0000000  0.6508444  3
   4558   4556   4553   4583     1  0.0000000  1.0460000  1
   4558   4556   4553   4583     1  0.0000000  0.0000000  3
   4559   4562   4563   4564     1  0.0000000  1.2552000  3
   4559   4562   4563   4565     1  0.0000000  1.2552000  3
   4559   4562   4573   4574     1  0.0000000  1.2552000  3
   4559   4562   4573   4575     1  0.0000000  1.2552000  3
   4560   4559   4562   4563     1  0.0000000  1.2552000  3
   4560   4559   4562   4573     1  0.0000000  1.2552000  3
   4561   4559   4562   4563     1  0.0000000  1.2552000  3
   4561   4559   4562   4573     1  0.0000000  1.2552000  3
   4562   4563   4566   4567     1  0.0000000  0.6508444  3
   4562   4563   4566   4568     1  0.0000000  0.6508444  3
   4562   4573   4576   4577     1  0.0000000  0.6508444  3
   4562   4573   4576   4578     1  0.0000000  0.6508444  3
   4563   4562   4573   4574     1  0.0000000  1.2552000  3
   4563   4562   4573   4575     1  0.0000000  1.2552000  3
   4564   4563   4566   4569     1  0.0000000  0.6508444  3
   4564   4563   4566   4567     1  0.0000000  0.6508444  3
   4564   4563   4566   4568     1  0.0000000  0.6508444  3
   4564   4563   4562   4573     1  0.0000000  1.2552000  3
   4565   4563   4566   4569     1  0.0000000  0.6508444  3
   4565   4563   4566   4567     1  0.0000000  0.6508444  3
   4565   4563   4566   4568     1  0.0000000  0.6508444  3
   4565   4563   4562   4573     1  0.0000000  1.2552000  3
   4566   4569   4571   4572     1  180.0000771  9.6232000  2
   4567   4566   4569   4570     1  0.0000000  3.3472000  1
   4567   4566   4569   4570     1  0.0000000  0.0000000  2
   4567   4566   4569   4570     1  180.0000771  0.3347200  3
   4567   4566   4569   4571     1  180.0000771  0.0000000  2
   4568   4566   4569   4570     1  0.0000000  3.3472000  1
   4568   4566   4569   4570     1  0.0000000  0.0000000  2
   4568   4566   4569   4570     1  180.0000771  0.3347200  3
   4568   4566   4569   4571     1  180.0000771  0.0000000  2
   4570   4569   4571   4572     1  0.0000000  7.9496000  1
   4570   4569   4571   4572     1  180.0000771  9.6232000  2
   4574   4573   4576   4579     1  0.0000000  0.6508444  3
   4574   4573   4576   4577     1  0.0000000  0.6508444  3
   4574   4573   4576   4578     1  0.0000000  0.6508444  3
   4575   4573   4576   4579     1  0.0000000  0.6508444  3
   4575   4573   4576   4577     1  0.0000000  0.6508444  3
   4575   4573   4576   4578     1  0.0000000  0.6508444  3
   4576   4579   4581   4582     1  180.0000771  9.6232000  2
   4577   4576   4579   4580     1  0.0000000  3.3472000  1
   4577   4576   4579   4580     1  0.0000000  0.0000000  2
   4577   4576   4579   4580     1  180.0000771  0.3347200  3
   4577   4576   4579   4581     1  180.0000771  0.0000000  2
   4578   4576   4579   4580     1  0.0000000  3.3472000  1
   4578   4576   4579   4580     1  0.0000000  0.0000000  2
   4578   4576   4579   4580     1  180.0000771  0.3347200  3
   4578   4576   4579   4581     1  180.0000771  0.0000000  2
   4580   4579   4581   4582     1  0.0000000  7.9496000  1
   4580   4579   4581   4582     1  180.0000771  9.6232000  2
   4584   4587   4590   4591     1  0.0000000  0.6508444  3
   4584   4587   4590   4592     1  0.0000000  0.6508444  3
   4585   4584   4587   4590     1  0.0000000  0.6508444  3
   4585   4584   4587   4588     1  0.0000000  0.6508444  3
   4585   4584   4587   4589     1  0.0000000  0.6508444  3
   4586   4584   4587   4590     1  0.0000000  0.6508444  3
   4586   4584   4587   4588     1  0.0000000  0.6508444  3
   4586   4584   4587   4589     1  0.0000000  0.6508444  3
   4588   4587   4584   4614     1  0.0000000  1.0460000  1
   4588   4587   4584   4614     1  0.0000000  0.0000000  3
   4588   4587   4590   4593     1  0.0000000  0.6508444  3
   4588   4587   4590   4591     1  0.0000000  0.6508444  3
   4588   4587   4590   4592     1  0.0000000  0.6508444  3
   4589   4587   4584   4614     1  0.0000000  1.0460000  1
   4589   4587   4584   4614     1  0.0000000  0.0000000  3
   4589   4587   4590   4593     1  0.0000000  0.6508444  3
   4589   4587   4590   4591     1  0.0000000  0.6508444  3
   4589   4587   4590   4592     1  0.0000000  0.6508444  3
   4590   4593   4594   4595     1  0.0000000  1.2552000  3
   4590   4593   4594   4596     1  0.0000000  1.2552000  3
   4590   4593   4604   4605     1  0.0000000  1.2552000  3
   4590   4593   4604   4606     1  0.0000000  1.2552000  3
   4591   4590   4593   4594     1  0.0000000  1.2552000  3
   4591   4590   4593   4604     1  0.0000000  1.2552000  3
   4592   4590   4593   4594     1  0.0000000  1.2552000  3
   4592   4590   4593   4604     1  0.0000000  1.2552000  3
   4593   4594   4597   4598     1  0.0000000  0.6508444  3
   4593   4594   4597   4599     1  0.0000000  0.6508444  3
   4593   4604   4607   4608     1  0.0000000  0.6508444  3
   4593   4604   4607   4609     1  0.0000000  0.6508444  3
   4594   4593   4604   4605     1  0.0000000  1.2552000  3
   4594   4593   4604   4606     1  0.0000000  1.2552000  3
   4595   4594   4593   4604     1  0.0000000  1.2552000  3
   4595   4594   4597   4600     1  0.0000000  0.6508444  3
   4595   4594   4597   4598     1  0.0000000  0.6508444  3
   4595   4594   4597   4599     1  0.0000000  0.6508444  3
   4596   4594   4593   4604     1  0.0000000  1.2552000  3
   4596   4594   4597   4600     1  0.0000000  0.6508444  3
   4596   4594   4597   4598     1  0.0000000  0.6508444  3
   4596   4594   4597   4599     1  0.0000000  0.6508444  3
   4597   4600   4602   4603     1  180.0000771  9.6232000  2
   4598   4597   4600   4601     1  0.0000000  3.3472000  1
   4598   4597   4600   4601     1  0.0000000  0.0000000  2
   4598   4597   4600   4601     1  180.0000771  0.3347200  3
   4598   4597   4600   4602     1  180.0000771  0.0000000  2
   4599   4597   4600   4601     1  0.0000000  3.3472000  1
   4599   4597   4600   4601     1  0.0000000  0.0000000  2
   4599   4597   4600   4601     1  180.0000771  0.3347200  3
   4599   4597   4600   4602     1  180.0000771  0.0000000  2
   4601   4600   4602   4603     1  0.0000000  7.9496000  1
   4601   4600   4602   4603     1  180.0000771  9.6232000  2
   4605   4604   4607   4610     1  0.0000000  0.6508444  3
   4605   4604   4607   4608     1  0.0000000  0.6508444  3
   4605   4604   4607   4609     1  0.0000000  0.6508444  3
   4606   4604   4607   4610     1  0.0000000  0.6508444  3
   4606   4604   4607   4608     1  0.0000000  0.6508444  3
   4606   4604   4607   4609     1  0.0000000  0.6508444  3
   4607   4610   4612   4613     1  180.0000771  9.6232000  2
   4608   4607   4610   4611     1  0.0000000  3.3472000  1
   4608   4607   4610   4611     1  0.0000000  0.0000000  2
   4608   4607   4610   4611     1  180.0000771  0.3347200  3
   4608   4607   4610   4612     1  180.0000771  0.0000000  2
   4609   4607   4610   4611     1  0.0000000  3.3472000  1
   4609   4607   4610   4611     1  0.0000000  0.0000000  2
   4609   4607   4610   4611     1  180.0000771  0.3347200  3
   4609   4607   4610   4612     1  180.0000771  0.0000000  2
   4611   4610   4612   4613     1  0.0000000  7.9496000  1
   4611   4610   4612   4613     1  180.0000771  9.6232000  2
   4615   4618   4621   4622     1  0.0000000  0.6508444  3
   4615   4618   4621   4623     1  0.0000000  0.6508444  3
   4616   4615   4618   4621     1  0.0000000  0.6508444  3
   4616   4615   4618   4619     1  0.0000000  0.6508444  3
   4616   4615   4618   4620     1  0.0000000  0.6508444  3
   4617   4615   4618   4621     1  0.0000000  0.6508444  3
   4617   4615   4618   4619     1  0.0000000  0.6508444  3
   4617   4615   4618   4620     1  0.0000000  0.6508444  3
   4619   4618   4621   4624     1  0.0000000  0.6508444  3
   4619   4618   4621   4622     1  0.0000000  0.6508444  3
   4619   4618   4621   4623     1  0.0000000  0.6508444  3
   4619   4618   4615   4645     1  0.0000000  1.0460000  1
   4619   4618   4615   4645     1  0.0000000  0.0000000  3
   4620   4618   4621   4624     1  0.0000000  0.6508444  3
   4620   4618   4621   4622     1  0.0000000  0.6508444  3
   4620   4618   4621   4623     1  0.0000000  0.6508444  3
   4620   4618   4615   4645     1  0.0000000  1.0460000  1
   4620   4618   4615   4645     1  0.0000000  0.0000000  3
   4621   4624   4625   4626     1  0.0000000  1.2552000  3
   4621   4624   4625   4627     1  0.0000000  1.2552000  3
   4621   4624   4635   4636     1  0.0000000  1.2552000  3
   4621   4624   4635   4637     1  0.0000000  1.2552000  3
   4622   4621   4624   4625     1  0.0000000  1.2552000  3
   4622   4621   4624   4635     1  0.0000000  1.2552000  3
   4623   4621   4624   4625     1  0.0000000  1.2552000  3
   4623   4621   4624   4635     1  0.0000000  1.2552000  3
   4624   4625   4628   4629     1  0.0000000  0.6508444  3
   4624   4625   4628   4630     1  0.0000000  0.6508444  3
   4624   4635   4638   4639     1  0.0000000  0.6508444  3
   4624   4635   4638   4640     1  0.0000000  0.6508444  3
   4625   4624   4635   4636     1  0.0000000  1.2552000  3
   4625   4624   4635   4637     1  0.0000000  1.2552000  3
   4626   4625   4628   4631     1  0.0000000  0.6508444  3
   4626   4625   4628   4629     1  0.0000000  0.6508444  3
   4626   4625   4628   4630     1  0.0000000  0.6508444  3
   4626   4625   4624   4635     1  0.0000000  1.2552000  3
   4627   4625   4628   4631     1  0.0000000  0.6508444  3
   4627   4625   4628   4629     1  0.0000000  0.6508444  3
   4627   4625   4628   4630     1  0.0000000  0.6508444  3
   4627   4625   4624   4635     1  0.0000000  1.2552000  3
   4628   4631   4633   4634     1  180.0000771  9.6232000  2
   4629   4628   4631   4632     1  0.0000000  3.3472000  1
   4629   4628   4631   4632     1  0.0000000  0.0000000  2
   4629   4628   4631   4632     1  180.0000771  0.3347200  3
   4629   4628   4631   4633     1  180.0000771  0.0000000  2
   4630   4628   4631   4632     1  0.0000000  3.3472000  1
   4630   4628   4631   4632     1  0.0000000  0.0000000  2
   4630   4628   4631   4632     1  180.0000771  0.3347200  3
   4630   4628   4631   4633     1  180.0000771  0.0000000  2
   4632   4631   4633   4634     1  0.0000000  7.9496000  1
   4632   4631   4633   4634     1  180.0000771  9.6232000  2
   4636   4635   4638   4641     1  0.0000000  0.6508444  3
   4636   4635   4638   4639     1  0.0000000  0.6508444  3
   4636   4635   4638   4640     1  0.0000000  0.6508444  3
   4637   4635   4638   4641     1  0.0000000  0.6508444  3
   4637   4635   4638   4639     1  0.0000000  0.6508444  3
   4637   4635   4638   4640     1  0.0000000  0.6508444  3
   4638   4641   4643   4644     1  180.0000771  9.6232000  2
   4639   4638   4641   4642     1  0.0000000  3.3472000  1
   4639   4638   4641   4642     1  0.0000000  0.0000000  2
   4639   4638   4641   4642     1  180.0000771  0.3347200  3
   4639   4638   4641   4643     1  180.0000771  0.0000000  2
   4640   4638   4641   4642     1  0.0000000  3.3472000  1
   4640   4638   4641   4642     1  0.0000000  0.0000000  2
   4640   4638   4641   4642     1  180.0000771  0.3347200  3
   4640   4638   4641   4643     1  180.0000771  0.0000000  2
   4642   4641   4643   4644     1  0.0000000  7.9496000  1
   4642   4641   4643   4644     1  180.0000771  9.6232000  2
   4646   4649   4652   4653     1  0.0000000  0.6508444  3
   4646   4649   4652   4654     1  0.0000000  0.6508444  3
   4647   4646   4649   4652     1  0.0000000  0.6508444  3
   4647   4646   4649   4650     1  0.0000000  0.6508444  3
   4647   4646   4649   4651     1  0.0000000  0.6508444  3
   4648   4646   4649   4652     1  0.0000000  0.6508444  3
   4648   4646   4649   4650     1  0.0000000  0.6508444  3
   4648   4646   4649   4651     1  0.0000000  0.6508444  3
   4650   4649   4646   4676     1  0.0000000  1.0460000  1
   4650   4649   4646   4676     1  0.0000000  0.0000000  3
   4650   4649   4652   4655     1  0.0000000  0.6508444  3
   4650   4649   4652   4653     1  0.0000000  0.6508444  3
   4650   4649   4652   4654     1  0.0000000  0.6508444  3
   4651   4649   4646   4676     1  0.0000000  1.0460000  1
   4651   4649   4646   4676     1  0.0000000  0.0000000  3
   4651   4649   4652   4655     1  0.0000000  0.6508444  3
   4651   4649   4652   4653     1  0.0000000  0.6508444  3
   4651   4649   4652   4654     1  0.0000000  0.6508444  3
   4652   4655   4656   4657     1  0.0000000  1.2552000  3
   4652   4655   4656   4658     1  0.0000000  1.2552000  3
   4652   4655   4666   4667     1  0.0000000  1.2552000  3
   4652   4655   4666   4668     1  0.0000000  1.2552000  3
   4653   4652   4655   4656     1  0.0000000  1.2552000  3
   4653   4652   4655   4666     1  0.0000000  1.2552000  3
   4654   4652   4655   4656     1  0.0000000  1.2552000  3
   4654   4652   4655   4666     1  0.0000000  1.2552000  3
   4655   4656   4659   4660     1  0.0000000  0.6508444  3
   4655   4656   4659   4661     1  0.0000000  0.6508444  3
   4655   4666   4669   4670     1  0.0000000  0.6508444  3
   4655   4666   4669   4671     1  0.0000000  0.6508444  3
   4656   4655   4666   4667     1  0.0000000  1.2552000  3
   4656   4655   4666   4668     1  0.0000000  1.2552000  3
   4657   4656   4655   4666     1  0.0000000  1.2552000  3
   4657   4656   4659   4662     1  0.0000000  0.6508444  3
   4657   4656   4659   4660     1  0.0000000  0.6508444  3
   4657   4656   4659   4661     1  0.0000000  0.6508444  3
   4658   4656   4655   4666     1  0.0000000  1.2552000  3
   4658   4656   4659   4662     1  0.0000000  0.6508444  3
   4658   4656   4659   4660     1  0.0000000  0.6508444  3
   4658   4656   4659   4661     1  0.0000000  0.6508444  3
   4659   4662   4664   4665     1  180.0000771  9.6232000  2
   4660   4659   4662   4663     1  0.0000000  3.3472000  1
   4660   4659   4662   4663     1  0.0000000  0.0000000  2
   4660   4659   4662   4663     1  180.0000771  0.3347200  3
   4660   4659   4662   4664     1  180.0000771  0.0000000  2
   4661   4659   4662   4663     1  0.0000000  3.3472000  1
   4661   4659   4662   4663     1  0.0000000  0.0000000  2
   4661   4659   4662   4663     1  180.0000771  0.3347200  3
   4661   4659   4662   4664     1  180.0000771  0.0000000  2
   4663   4662   4664   4665     1  0.0000000  7.9496000  1
   4663   4662   4664   4665     1  180.0000771  9.6232000  2
   4667   4666   4669   4672     1  0.0000000  0.6508444  3
   4667   4666   4669   4670     1  0.0000000  0.6508444  3
   4667   4666   4669   4671     1  0.0000000  0.6508444  3
   4668   4666   4669   4672     1  0.0000000  0.6508444  3
   4668   4666   4669   4670     1  0.0000000  0.6508444  3
   4668   4666   4669   4671     1  0.0000000  0.6508444  3
   4669   4672   4674   4675     1  180.0000771  9.6232000  2
   4670   4669   4672   4673     1  0.0000000  3.3472000  1
   4670   4669   4672   4673     1  0.0000000  0.0000000  2
   4670   4669   4672   4673     1  180.0000771  0.3347200  3
   4670   4669   4672   4674     1  180.0000771  0.0000000  2
   4671   4669   4672   4673     1  0.0000000  3.3472000  1
   4671   4669   4672   4673     1  0.0000000  0.0000000  2
   4671   4669   4672   4673     1  180.0000771  0.3347200  3
   4671   4669   4672   4674     1  180.0000771  0.0000000  2
   4673   4672   4674   4675     1  0.0000000  7.9496000  1
   4673   4672   4674   4675     1  180.0000771  9.6232000  2
   4677   4680   4683   4684     1  0.0000000  0.6508444  3
   4677   4680   4683   4685     1  0.0000000  0.6508444  3
   4678   4677   4680   4683     1  0.0000000  0.6508444  3
   4678   4677   4680   4681     1  0.0000000  0.6508444  3
   4678   4677   4680   4682     1  0.0000000  0.6508444  3
   4679   4677   4680   4683     1  0.0000000  0.6508444  3
   4679   4677   4680   4681     1  0.0000000  0.6508444  3
   4679   4677   4680   4682     1  0.0000000  0.6508444  3
   4681   4680   4683   4686     1  0.0000000  0.6508444  3
   4681   4680   4683   4684     1  0.0000000  0.6508444  3
   4681   4680   4683   4685     1  0.0000000  0.6508444  3
   4681   4680   4677   4707     1  0.0000000  1.0460000  1
   4681   4680   4677   4707     1  0.0000000  0.0000000  3
   4682   4680   4683   4686     1  0.0000000  0.6508444  3
   4682   4680   4683   4684     1  0.0000000  0.6508444  3
   4682   4680   4683   4685     1  0.0000000  0.6508444  3
   4682   4680   4677   4707     1  0.0000000  1.0460000  1
   4682   4680   4677   4707     1  0.0000000  0.0000000  3
   4683   4686   4687   4688     1  0.0000000  1.2552000  3
   4683   4686   4687   4689     1  0.0000000  1.2552000  3
   4683   4686   4697   4698     1  0.0000000  1.2552000  3
   4683   4686   4697   4699     1  0.0000000  1.2552000  3
   4684   4683   4686   4687     1  0.0000000  1.2552000  3
   4684   4683   4686   4697     1  0.0000000  1.2552000  3
   4685   4683   4686   4687     1  0.0000000  1.2552000  3
   4685   4683   4686   4697     1  0.0000000  1.2552000  3
   4686   4687   4690   4691     1  0.0000000  0.6508444  3
   4686   4687   4690   4692     1  0.0000000  0.6508444  3
   4686   4697   4700   4701     1  0.0000000  0.6508444  3
   4686   4697   4700   4702     1  0.0000000  0.6508444  3
   4687   4686   4697   4698     1  0.0000000  1.2552000  3
   4687   4686   4697   4699     1  0.0000000  1.2552000  3
   4688   4687   4690   4693     1  0.0000000  0.6508444  3
   4688   4687   4690   4691     1  0.0000000  0.6508444  3
   4688   4687   4690   4692     1  0.0000000  0.6508444  3
   4688   4687   4686   4697     1  0.0000000  1.2552000  3
   4689   4687   4690   4693     1  0.0000000  0.6508444  3
   4689   4687   4690   4691     1  0.0000000  0.6508444  3
   4689   4687   4690   4692     1  0.0000000  0.6508444  3
   4689   4687   4686   4697     1  0.0000000  1.2552000  3
   4690   4693   4695   4696     1  180.0000771  9.6232000  2
   4691   4690   4693   4694     1  0.0000000  3.3472000  1
   4691   4690   4693   4694     1  0.0000000  0.0000000  2
   4691   4690   4693   4694     1  180.0000771  0.3347200  3
   4691   4690   4693   4695     1  180.0000771  0.0000000  2
   4692   4690   4693   4694     1  0.0000000  3.3472000  1
   4692   4690   4693   4694     1  0.0000000  0.0000000  2
   4692   4690   4693   4694     1  180.0000771  0.3347200  3
   4692   4690   4693   4695     1  180.0000771  0.0000000  2
   4694   4693   4695   4696     1  0.0000000  7.9496000  1
   4694   4693   4695   4696     1  180.0000771  9.6232000  2
   4698   4697   4700   4703     1  0.0000000  0.6508444  3
   4698   4697   4700   4701     1  0.0000000  0.6508444  3
   4698   4697   4700   4702     1  0.0000000  0.6508444  3
   4699   4697   4700   4703     1  0.0000000  0.6508444  3
   4699   4697   4700   4701     1  0.0000000  0.6508444  3
   4699   4697   4700   4702     1  0.0000000  0.6508444  3
   4700   4703   4705   4706     1  180.0000771  9.6232000  2
   4701   4700   4703   4704     1  0.0000000  3.3472000  1
   4701   4700   4703   4704     1  0.0000000  0.0000000  2
   4701   4700   4703   4704     1  180.0000771  0.3347200  3
   4701   4700   4703   4705     1  180.0000771  0.0000000  2
   4702   4700   4703   4704     1  0.0000000  3.3472000  1
   4702   4700   4703   4704     1  0.0000000  0.0000000  2
   4702   4700   4703   4704     1  180.0000771  0.3347200  3
   4702   4700   4703   4705     1  180.0000771  0.0000000  2
   4704   4703   4705   4706     1  0.0000000  7.9496000  1
   4704   4703   4705   4706     1  180.0000771  9.6232000  2
   4708   4711   4714   4715     1  0.0000000  0.6508444  3
   4708   4711   4714   4716     1  0.0000000  0.6508444  3
   4709   4708   4711   4714     1  0.0000000  0.6508444  3
   4709   4708   4711   4712     1  0.0000000  0.6508444  3
   4709   4708   4711   4713     1  0.0000000  0.6508444  3
   4710   4708   4711   4714     1  0.0000000  0.6508444  3
   4710   4708   4711   4712     1  0.0000000  0.6508444  3
   4710   4708   4711   4713     1  0.0000000  0.6508444  3
   4712   4711   4708   4738     1  0.0000000  1.0460000  1
   4712   4711   4708   4738     1  0.0000000  0.0000000  3
   4712   4711   4714   4717     1  0.0000000  0.6508444  3
   4712   4711   4714   4715     1  0.0000000  0.6508444  3
   4712   4711   4714   4716     1  0.0000000  0.6508444  3
   4713   4711   4708   4738     1  0.0000000  1.0460000  1
   4713   4711   4708   4738     1  0.0000000  0.0000000  3
   4713   4711   4714   4717     1  0.0000000  0.6508444  3
   4713   4711   4714   4715     1  0.0000000  0.6508444  3
   4713   4711   4714   4716     1  0.0000000  0.6508444  3
   4714   4717   4718   4719     1  0.0000000  1.2552000  3
   4714   4717   4718   4720     1  0.0000000  1.2552000  3
   4714   4717   4728   4729     1  0.0000000  1.2552000  3
   4714   4717   4728   4730     1  0.0000000  1.2552000  3
   4715   4714   4717   4718     1  0.0000000  1.2552000  3
   4715   4714   4717   4728     1  0.0000000  1.2552000  3
   4716   4714   4717   4718     1  0.0000000  1.2552000  3
   4716   4714   4717   4728     1  0.0000000  1.2552000  3
   4717   4718   4721   4722     1  0.0000000  0.6508444  3
   4717   4718   4721   4723     1  0.0000000  0.6508444  3
   4717   4728   4731   4732     1  0.0000000  0.6508444  3
   4717   4728   4731   4733     1  0.0000000  0.6508444  3
   4718   4717   4728   4729     1  0.0000000  1.2552000  3
   4718   4717   4728   4730     1  0.0000000  1.2552000  3
   4719   4718   4717   4728     1  0.0000000  1.2552000  3
   4719   4718   4721   4724     1  0.0000000  0.6508444  3
   4719   4718   4721   4722     1  0.0000000  0.6508444  3
   4719   4718   4721   4723     1  0.0000000  0.6508444  3
   4720   4718   4717   4728     1  0.0000000  1.2552000  3
   4720   4718   4721   4724     1  0.0000000  0.6508444  3
   4720   4718   4721   4722     1  0.0000000  0.6508444  3
   4720   4718   4721   4723     1  0.0000000  0.6508444  3
   4721   4724   4726   4727     1  180.0000771  9.6232000  2
   4722   4721   4724   4725     1  0.0000000  3.3472000  1
   4722   4721   4724   4725     1  0.0000000  0.0000000  2
   4722   4721   4724   4725     1  180.0000771  0.3347200  3
   4722   4721   4724   4726     1  180.0000771  0.0000000  2
   4723   4721   4724   4725     1  0.0000000  3.3472000  1
   4723   4721   4724   4725     1  0.0000000  0.0000000  2
   4723   4721   4724   4725     1  180.0000771  0.3347200  3
   4723   4721   4724   4726     1  180.0000771  0.0000000  2
   4725   4724   4726   4727     1  0.0000000  7.9496000  1
   4725   4724   4726   4727     1  180.0000771  9.6232000  2
   4729   4728   4731   4734     1  0.0000000  0.6508444  3
   4729   4728   4731   4732     1  0.0000000  0.6508444  3
   4729   4728   4731   4733     1  0.0000000  0.6508444  3
   4730   4728   4731   4734     1  0.0000000  0.6508444  3
   4730   4728   4731   4732     1  0.0000000  0.6508444  3
   4730   4728   4731   4733     1  0.0000000  0.6508444  3
   4731   4734   4736   4737     1  180.0000771  9.6232000  2
   4732   4731   4734   4735     1  0.0000000  3.3472000  1
   4732   4731   4734   4735     1  0.0000000  0.0000000  2
   4732   4731   4734   4735     1  180.0000771  0.3347200  3
   4732   4731   4734   4736     1  180.0000771  0.0000000  2
   4733   4731   4734   4735     1  0.0000000  3.3472000  1
   4733   4731   4734   4735     1  0.0000000  0.0000000  2
   4733   4731   4734   4735     1  180.0000771  0.3347200  3
   4733   4731   4734   4736     1  180.0000771  0.0000000  2
   4735   4734   4736   4737     1  0.0000000  7.9496000  1
   4735   4734   4736   4737     1  180.0000771  9.6232000  2
   4739   4742   4745   4746     1  0.0000000  0.6508444  3
   4739   4742   4745   4747     1  0.0000000  0.6508444  3
   4740   4739   4742   4745     1  0.0000000  0.6508444  3
   4740   4739   4742   4743     1  0.0000000  0.6508444  3
   4740   4739   4742   4744     1  0.0000000  0.6508444  3
   4741   4739   4742   4745     1  0.0000000  0.6508444  3
   4741   4739   4742   4743     1  0.0000000  0.6508444  3
   4741   4739   4742   4744     1  0.0000000  0.6508444  3
   4743   4742   4745   4748     1  0.0000000  0.6508444  3
   4743   4742   4745   4746     1  0.0000000  0.6508444  3
   4743   4742   4745   4747     1  0.0000000  0.6508444  3
   4743   4742   4739   4769     1  0.0000000  1.0460000  1
   4743   4742   4739   4769     1  0.0000000  0.0000000  3
   4744   4742   4745   4748     1  0.0000000  0.6508444  3
   4744   4742   4745   4746     1  0.0000000  0.6508444  3
   4744   4742   4745   4747     1  0.0000000  0.6508444  3
   4744   4742   4739   4769     1  0.0000000  1.0460000  1
   4744   4742   4739   4769     1  0.0000000  0.0000000  3
   4745   4748   4749   4750     1  0.0000000  1.2552000  3
   4745   4748   4749   4751     1  0.0000000  1.2552000  3
   4745   4748   4759   4760     1  0.0000000  1.2552000  3
   4745   4748   4759   4761     1  0.0000000  1.2552000  3
   4746   4745   4748   4749     1  0.0000000  1.2552000  3
   4746   4745   4748   4759     1  0.0000000  1.2552000  3
   4747   4745   4748   4749     1  0.0000000  1.2552000  3
   4747   4745   4748   4759     1  0.0000000  1.2552000  3
   4748   4749   4752   4753     1  0.0000000  0.6508444  3
   4748   4749   4752   4754     1  0.0000000  0.6508444  3
   4748   4759   4762   4763     1  0.0000000  0.6508444  3
   4748   4759   4762   4764     1  0.0000000  0.6508444  3
   4749   4748   4759   4760     1  0.0000000  1.2552000  3
   4749   4748   4759   4761     1  0.0000000  1.2552000  3
   4750   4749   4752   4755     1  0.0000000  0.6508444  3
   4750   4749   4752   4753     1  0.0000000  0.6508444  3
   4750   4749   4752   4754     1  0.0000000  0.6508444  3
   4750   4749   4748   4759     1  0.0000000  1.2552000  3
   4751   4749   4752   4755     1  0.0000000  0.6508444  3
   4751   4749   4752   4753     1  0.0000000  0.6508444  3
   4751   4749   4752   4754     1  0.0000000  0.6508444  3
   4751   4749   4748   4759     1  0.0000000  1.2552000  3
   4752   4755   4757   4758     1  180.0000771  9.6232000  2
   4753   4752   4755   4756     1  0.0000000  3.3472000  1
   4753   4752   4755   4756     1  0.0000000  0.0000000  2
   4753   4752   4755   4756     1  180.0000771  0.3347200  3
   4753   4752   4755   4757     1  180.0000771  0.0000000  2
   4754   4752   4755   4756     1  0.0000000  3.3472000  1
   4754   4752   4755   4756     1  0.0000000  0.0000000  2
   4754   4752   4755   4756     1  180.0000771  0.3347200  3
   4754   4752   4755   4757     1  180.0000771  0.0000000  2
   4756   4755   4757   4758     1  0.0000000  7.9496000  1
   4756   4755   4757   4758     1  180.0000771  9.6232000  2
   4760   4759   4762   4765     1  0.0000000  0.6508444  3
   4760   4759   4762   4763     1  0.0000000  0.6508444  3
   4760   4759   4762   4764     1  0.0000000  0.6508444  3
   4761   4759   4762   4765     1  0.0000000  0.6508444  3
   4761   4759   4762   4763     1  0.0000000  0.6508444  3
   4761   4759   4762   4764     1  0.0000000  0.6508444  3
   4762   4765   4767   4768     1  180.0000771  9.6232000  2
   4763   4762   4765   4766     1  0.0000000  3.3472000  1
   4763   4762   4765   4766     1  0.0000000  0.0000000  2
   4763   4762   4765   4766     1  180.0000771  0.3347200  3
   4763   4762   4765   4767     1  180.0000771  0.0000000  2
   4764   4762   4765   4766     1  0.0000000  3.3472000  1
   4764   4762   4765   4766     1  0.0000000  0.0000000  2
   4764   4762   4765   4766     1  180.0000771  0.3347200  3
   4764   4762   4765   4767     1  180.0000771  0.0000000  2
   4766   4765   4767   4768     1  0.0000000  7.9496000  1
   4766   4765   4767   4768     1  180.0000771  9.6232000  2
   4770   4773   4776   4777     1  0.0000000  0.6508444  3
   4770   4773   4776   4778     1  0.0000000  0.6508444  3
   4771   4770   4773   4776     1  0.0000000  0.6508444  3
   4771   4770   4773   4774     1  0.0000000  0.6508444  3
   4771   4770   4773   4775     1  0.0000000  0.6508444  3
   4772   4770   4773   4776     1  0.0000000  0.6508444  3
   4772   4770   4773   4774     1  0.0000000  0.6508444  3
   4772   4770   4773   4775     1  0.0000000  0.6508444  3
   4774   4773   4770   4800     1  0.0000000  1.0460000  1
   4774   4773   4770   4800     1  0.0000000  0.0000000  3
   4774   4773   4776   4779     1  0.0000000  0.6508444  3
   4774   4773   4776   4777     1  0.0000000  0.6508444  3
   4774   4773   4776   4778     1  0.0000000  0.6508444  3
   4775   4773   4770   4800     1  0.0000000  1.0460000  1
   4775   4773   4770   4800     1  0.0000000  0.0000000  3
   4775   4773   4776   4779     1  0.0000000  0.6508444  3
   4775   4773   4776   4777     1  0.0000000  0.6508444  3
   4775   4773   4776   4778     1  0.0000000  0.6508444  3
   4776   4779   4780   4781     1  0.0000000  1.2552000  3
   4776   4779   4780   4782     1  0.0000000  1.2552000  3
   4776   4779   4790   4791     1  0.0000000  1.2552000  3
   4776   4779   4790   4792     1  0.0000000  1.2552000  3
   4777   4776   4779   4780     1  0.0000000  1.2552000  3
   4777   4776   4779   4790     1  0.0000000  1.2552000  3
   4778   4776   4779   4780     1  0.0000000  1.2552000  3
   4778   4776   4779   4790     1  0.0000000  1.2552000  3
   4779   4780   4783   4784     1  0.0000000  0.6508444  3
   4779   4780   4783   4785     1  0.0000000  0.6508444  3
   4779   4790   4793   4794     1  0.0000000  0.6508444  3
   4779   4790   4793   4795     1  0.0000000  0.6508444  3
   4780   4779   4790   4791     1  0.0000000  1.2552000  3
   4780   4779   4790   4792     1  0.0000000  1.2552000  3
   4781   4780   4779   4790     1  0.0000000  1.2552000  3
   4781   4780   4783   4786     1  0.0000000  0.6508444  3
   4781   4780   4783   4784     1  0.0000000  0.6508444  3
   4781   4780   4783   4785     1  0.0000000  0.6508444  3
   4782   4780   4779   4790     1  0.0000000  1.2552000  3
   4782   4780   4783   4786     1  0.0000000  0.6508444  3
   4782   4780   4783   4784     1  0.0000000  0.6508444  3
   4782   4780   4783   4785     1  0.0000000  0.6508444  3
   4783   4786   4788   4789     1  180.0000771  9.6232000  2
   4784   4783   4786   4787     1  0.0000000  3.3472000  1
   4784   4783   4786   4787     1  0.0000000  0.0000000  2
   4784   4783   4786   4787     1  180.0000771  0.3347200  3
   4784   4783   4786   4788     1  180.0000771  0.0000000  2
   4785   4783   4786   4787     1  0.0000000  3.3472000  1
   4785   4783   4786   4787     1  0.0000000  0.0000000  2
   4785   4783   4786   4787     1  180.0000771  0.3347200  3
   4785   4783   4786   4788     1  180.0000771  0.0000000  2
   4787   4786   4788   4789     1  0.0000000  7.9496000  1
   4787   4786   4788   4789     1  180.0000771  9.6232000  2
   4791   4790   4793   4796     1  0.0000000  0.6508444  3
   4791   4790   4793   4794     1  0.0000000  0.6508444  3
   4791   4790   4793   4795     1  0.0000000  0.6508444  3
   4792   4790   4793   4796     1  0.0000000  0.6508444  3
   4792   4790   4793   4794     1  0.0000000  0.6508444  3
   4792   4790   4793   4795     1  0.0000000  0.6508444  3
   4793   4796   4798   4799     1  180.0000771  9.6232000  2
   4794   4793   4796   4797     1  0.0000000  3.3472000  1
   4794   4793   4796   4797     1  0.0000000  0.0000000  2
   4794   4793   4796   4797     1  180.0000771  0.3347200  3
   4794   4793   4796   4798     1  180.0000771  0.0000000  2
   4795   4793   4796   4797     1  0.0000000  3.3472000  1
   4795   4793   4796   4797     1  0.0000000  0.0000000  2
   4795   4793   4796   4797     1  180.0000771  0.3347200  3
   4795   4793   4796   4798     1  180.0000771  0.0000000  2
   4797   4796   4798   4799     1  0.0000000  7.9496000  1
   4797   4796   4798   4799     1  180.0000771  9.6232000  2
   4801   4804   4807   4808     1  0.0000000  0.6508444  3
   4801   4804   4807   4809     1  0.0000000  0.6508444  3
   4802   4801   4804   4807     1  0.0000000  0.6508444  3
   4802   4801   4804   4805     1  0.0000000  0.6508444  3
   4802   4801   4804   4806     1  0.0000000  0.6508444  3
   4803   4801   4804   4807     1  0.0000000  0.6508444  3
   4803   4801   4804   4805     1  0.0000000  0.6508444  3
   4803   4801   4804   4806     1  0.0000000  0.6508444  3
   4805   4804   4807   4810     1  0.0000000  0.6508444  3
   4805   4804   4807   4808     1  0.0000000  0.6508444  3
   4805   4804   4807   4809     1  0.0000000  0.6508444  3
   4805   4804   4801   4831     1  0.0000000  1.0460000  1
   4805   4804   4801   4831     1  0.0000000  0.0000000  3
   4806   4804   4807   4810     1  0.0000000  0.6508444  3
   4806   4804   4807   4808     1  0.0000000  0.6508444  3
   4806   4804   4807   4809     1  0.0000000  0.6508444  3
   4806   4804   4801   4831     1  0.0000000  1.0460000  1
   4806   4804   4801   4831     1  0.0000000  0.0000000  3
   4807   4810   4811   4812     1  0.0000000  1.2552000  3
   4807   4810   4811   4813     1  0.0000000  1.2552000  3
   4807   4810   4821   4822     1  0.0000000  1.2552000  3
   4807   4810   4821   4823     1  0.0000000  1.2552000  3
   4808   4807   4810   4811     1  0.0000000  1.2552000  3
   4808   4807   4810   4821     1  0.0000000  1.2552000  3
   4809   4807   4810   4811     1  0.0000000  1.2552000  3
   4809   4807   4810   4821     1  0.0000000  1.2552000  3
   4810   4811   4814   4815     1  0.0000000  0.6508444  3
   4810   4811   4814   4816     1  0.0000000  0.6508444  3
   4810   4821   4824   4825     1  0.0000000  0.6508444  3
   4810   4821   4824   4826     1  0.0000000  0.6508444  3
   4811   4810   4821   4822     1  0.0000000  1.2552000  3
   4811   4810   4821   4823     1  0.0000000  1.2552000  3
   4812   4811   4814   4817     1  0.0000000  0.6508444  3
   4812   4811   4814   4815     1  0.0000000  0.6508444  3
   4812   4811   4814   4816     1  0.0000000  0.6508444  3
   4812   4811   4810   4821     1  0.0000000  1.2552000  3
   4813   4811   4814   4817     1  0.0000000  0.6508444  3
   4813   4811   4814   4815     1  0.0000000  0.6508444  3
   4813   4811   4814   4816     1  0.0000000  0.6508444  3
   4813   4811   4810   4821     1  0.0000000  1.2552000  3
   4814   4817   4819   4820     1  180.0000771  9.6232000  2
   4815   4814   4817   4818     1  0.0000000  3.3472000  1
   4815   4814   4817   4818     1  0.0000000  0.0000000  2
   4815   4814   4817   4818     1  180.0000771  0.3347200  3
   4815   4814   4817   4819     1  180.0000771  0.0000000  2
   4816   4814   4817   4818     1  0.0000000  3.3472000  1
   4816   4814   4817   4818     1  0.0000000  0.0000000  2
   4816   4814   4817   4818     1  180.0000771  0.3347200  3
   4816   4814   4817   4819     1  180.0000771  0.0000000  2
   4818   4817   4819   4820     1  0.0000000  7.9496000  1
   4818   4817   4819   4820     1  180.0000771  9.6232000  2
   4822   4821   4824   4827     1  0.0000000  0.6508444  3
   4822   4821   4824   4825     1  0.0000000  0.6508444  3
   4822   4821   4824   4826     1  0.0000000  0.6508444  3
   4823   4821   4824   4827     1  0.0000000  0.6508444  3
   4823   4821   4824   4825     1  0.0000000  0.6508444  3
   4823   4821   4824   4826     1  0.0000000  0.6508444  3
   4824   4827   4829   4830     1  180.0000771  9.6232000  2
   4825   4824   4827   4828     1  0.0000000  3.3472000  1
   4825   4824   4827   4828     1  0.0000000  0.0000000  2
   4825   4824   4827   4828     1  180.0000771  0.3347200  3
   4825   4824   4827   4829     1  180.0000771  0.0000000  2
   4826   4824   4827   4828     1  0.0000000  3.3472000  1
   4826   4824   4827   4828     1  0.0000000  0.0000000  2
   4826   4824   4827   4828     1  180.0000771  0.3347200  3
   4826   4824   4827   4829     1  180.0000771  0.0000000  2
   4828   4827   4829   4830     1  0.0000000  7.9496000  1
   4828   4827   4829   4830     1  180.0000771  9.6232000  2
   4832   4835   4838   4839     1  0.0000000  0.6508444  3
   4832   4835   4838   4840     1  0.0000000  0.6508444  3
   4833   4832   4835   4838     1  0.0000000  0.6508444  3
   4833   4832   4835   4836     1  0.0000000  0.6508444  3
   4833   4832   4835   4837     1  0.0000000  0.6508444  3
   4834   4832   4835   4838     1  0.0000000  0.6508444  3
   4834   4832   4835   4836     1  0.0000000  0.6508444  3
   4834   4832   4835   4837     1  0.0000000  0.6508444  3
   4836   4835   4832   4862     1  0.0000000  1.0460000  1
   4836   4835   4832   4862     1  0.0000000  0.0000000  3
   4836   4835   4838   4841     1  0.0000000  0.6508444  3
   4836   4835   4838   4839     1  0.0000000  0.6508444  3
   4836   4835   4838   4840     1  0.0000000  0.6508444  3
   4837   4835   4832   4862     1  0.0000000  1.0460000  1
   4837   4835   4832   4862     1  0.0000000  0.0000000  3
   4837   4835   4838   4841     1  0.0000000  0.6508444  3
   4837   4835   4838   4839     1  0.0000000  0.6508444  3
   4837   4835   4838   4840     1  0.0000000  0.6508444  3
   4838   4841   4842   4843     1  0.0000000  1.2552000  3
   4838   4841   4842   4844     1  0.0000000  1.2552000  3
   4838   4841   4852   4853     1  0.0000000  1.2552000  3
   4838   4841   4852   4854     1  0.0000000  1.2552000  3
   4839   4838   4841   4842     1  0.0000000  1.2552000  3
   4839   4838   4841   4852     1  0.0000000  1.2552000  3
   4840   4838   4841   4842     1  0.0000000  1.2552000  3
   4840   4838   4841   4852     1  0.0000000  1.2552000  3
   4841   4842   4845   4846     1  0.0000000  0.6508444  3
   4841   4842   4845   4847     1  0.0000000  0.6508444  3
   4841   4852   4855   4856     1  0.0000000  0.6508444  3
   4841   4852   4855   4857     1  0.0000000  0.6508444  3
   4842   4841   4852   4853     1  0.0000000  1.2552000  3
   4842   4841   4852   4854     1  0.0000000  1.2552000  3
   4843   4842   4841   4852     1  0.0000000  1.2552000  3
   4843   4842   4845   4848     1  0.0000000  0.6508444  3
   4843   4842   4845   4846     1  0.0000000  0.6508444  3
   4843   4842   4845   4847     1  0.0000000  0.6508444  3
   4844   4842   4841   4852     1  0.0000000  1.2552000  3
   4844   4842   4845   4848     1  0.0000000  0.6508444  3
   4844   4842   4845   4846     1  0.0000000  0.6508444  3
   4844   4842   4845   4847     1  0.0000000  0.6508444  3
   4845   4848   4850   4851     1  180.0000771  9.6232000  2
   4846   4845   4848   4849     1  0.0000000  3.3472000  1
   4846   4845   4848   4849     1  0.0000000  0.0000000  2
   4846   4845   4848   4849     1  180.0000771  0.3347200  3
   4846   4845   4848   4850     1  180.0000771  0.0000000  2
   4847   4845   4848   4849     1  0.0000000  3.3472000  1
   4847   4845   4848   4849     1  0.0000000  0.0000000  2
   4847   4845   4848   4849     1  180.0000771  0.3347200  3
   4847   4845   4848   4850     1  180.0000771  0.0000000  2
   4849   4848   4850   4851     1  0.0000000  7.9496000  1
   4849   4848   4850   4851     1  180.0000771  9.6232000  2
   4853   4852   4855   4858     1  0.0000000  0.6508444  3
   4853   4852   4855   4856     1  0.0000000  0.6508444  3
   4853   4852   4855   4857     1  0.0000000  0.6508444  3
   4854   4852   4855   4858     1  0.0000000  0.6508444  3
   4854   4852   4855   4856     1  0.0000000  0.6508444  3
   4854   4852   4855   4857     1  0.0000000  0.6508444  3
   4855   4858   4860   4861     1  180.0000771  9.6232000  2
   4856   4855   4858   4859     1  0.0000000  3.3472000  1
   4856   4855   4858   4859     1  0.0000000  0.0000000  2
   4856   4855   4858   4859     1  180.0000771  0.3347200  3
   4856   4855   4858   4860     1  180.0000771  0.0000000  2
   4857   4855   4858   4859     1  0.0000000  3.3472000  1
   4857   4855   4858   4859     1  0.0000000  0.0000000  2
   4857   4855   4858   4859     1  180.0000771  0.3347200  3
   4857   4855   4858   4860     1  180.0000771  0.0000000  2
   4859   4858   4860   4861     1  0.0000000  7.9496000  1
   4859   4858   4860   4861     1  180.0000771  9.6232000  2
   4863   4866   4869   4870     1  0.0000000  0.6508444  3
   4863   4866   4869   4871     1  0.0000000  0.6508444  3
   4864   4863   4866   4869     1  0.0000000  0.6508444  3
   4864   4863   4866   4867     1  0.0000000  0.6508444  3
   4864   4863   4866   4868     1  0.0000000  0.6508444  3
   4865   4863   4866   4869     1  0.0000000  0.6508444  3
   4865   4863   4866   4867     1  0.0000000  0.6508444  3
   4865   4863   4866   4868     1  0.0000000  0.6508444  3
   4867   4866   4869   4872     1  0.0000000  0.6508444  3
   4867   4866   4869   4870     1  0.0000000  0.6508444  3
   4867   4866   4869   4871     1  0.0000000  0.6508444  3
   4867   4866   4863   4893     1  0.0000000  1.0460000  1
   4867   4866   4863   4893     1  0.0000000  0.0000000  3
   4868   4866   4869   4872     1  0.0000000  0.6508444  3
   4868   4866   4869   4870     1  0.0000000  0.6508444  3
   4868   4866   4869   4871     1  0.0000000  0.6508444  3
   4868   4866   4863   4893     1  0.0000000  1.0460000  1
   4868   4866   4863   4893     1  0.0000000  0.0000000  3
   4869   4872   4873   4874     1  0.0000000  1.2552000  3
   4869   4872   4873   4875     1  0.0000000  1.2552000  3
   4869   4872   4883   4884     1  0.0000000  1.2552000  3
   4869   4872   4883   4885     1  0.0000000  1.2552000  3
   4870   4869   4872   4873     1  0.0000000  1.2552000  3
   4870   4869   4872   4883     1  0.0000000  1.2552000  3
   4871   4869   4872   4873     1  0.0000000  1.2552000  3
   4871   4869   4872   4883     1  0.0000000  1.2552000  3
   4872   4873   4876   4877     1  0.0000000  0.6508444  3
   4872   4873   4876   4878     1  0.0000000  0.6508444  3
   4872   4883   4886   4887     1  0.0000000  0.6508444  3
   4872   4883   4886   4888     1  0.0000000  0.6508444  3
   4873   4872   4883   4884     1  0.0000000  1.2552000  3
   4873   4872   4883   4885     1  0.0000000  1.2552000  3
   4874   4873   4876   4879     1  0.0000000  0.6508444  3
   4874   4873   4876   4877     1  0.0000000  0.6508444  3
   4874   4873   4876   4878     1  0.0000000  0.6508444  3
   4874   4873   4872   4883     1  0.0000000  1.2552000  3
   4875   4873   4876   4879     1  0.0000000  0.6508444  3
   4875   4873   4876   4877     1  0.0000000  0.6508444  3
   4875   4873   4876   4878     1  0.0000000  0.6508444  3
   4875   4873   4872   4883     1  0.0000000  1.2552000  3
   4876   4879   4881   4882     1  180.0000771  9.6232000  2
   4877   4876   4879   4880     1  0.0000000  3.3472000  1
   4877   4876   4879   4880     1  0.0000000  0.0000000  2
   4877   4876   4879   4880     1  180.0000771  0.3347200  3
   4877   4876   4879   4881     1  180.0000771  0.0000000  2
   4878   4876   4879   4880     1  0.0000000  3.3472000  1
   4878   4876   4879   4880     1  0.0000000  0.0000000  2
   4878   4876   4879   4880     1  180.0000771  0.3347200  3
   4878   4876   4879   4881     1  180.0000771  0.0000000  2
   4880   4879   4881   4882     1  0.0000000  7.9496000  1
   4880   4879   4881   4882     1  180.0000771  9.6232000  2
   4884   4883   4886   4889     1  0.0000000  0.6508444  3
   4884   4883   4886   4887     1  0.0000000  0.6508444  3
   4884   4883   4886   4888     1  0.0000000  0.6508444  3
   4885   4883   4886   4889     1  0.0000000  0.6508444  3
   4885   4883   4886   4887     1  0.0000000  0.6508444  3
   4885   4883   4886   4888     1  0.0000000  0.6508444  3
   4886   4889   4891   4892     1  180.0000771  9.6232000  2
   4887   4886   4889   4890     1  0.0000000  3.3472000  1
   4887   4886   4889   4890     1  0.0000000  0.0000000  2
   4887   4886   4889   4890     1  180.0000771  0.3347200  3
   4887   4886   4889   4891     1  180.0000771  0.0000000  2
   4888   4886   4889   4890     1  0.0000000  3.3472000  1
   4888   4886   4889   4890     1  0.0000000  0.0000000  2
   4888   4886   4889   4890     1  180.0000771  0.3347200  3
   4888   4886   4889   4891     1  180.0000771  0.0000000  2
   4890   4889   4891   4892     1  0.0000000  7.9496000  1
   4890   4889   4891   4892     1  180.0000771  9.6232000  2
   4894   4897   4900   4901     1  0.0000000  0.6508444  3
   4894   4897   4900   4902     1  0.0000000  0.6508444  3
   4895   4894   4897   4900     1  0.0000000  0.6508444  3
   4895   4894   4897   4898     1  0.0000000  0.6508444  3
   4895   4894   4897   4899     1  0.0000000  0.6508444  3
   4896   4894   4897   4900     1  0.0000000  0.6508444  3
   4896   4894   4897   4898     1  0.0000000  0.6508444  3
   4896   4894   4897   4899     1  0.0000000  0.6508444  3
   4898   4897   4894   4924     1  0.0000000  1.0460000  1
   4898   4897   4894   4924     1  0.0000000  0.0000000  3
   4898   4897   4900   4903     1  0.0000000  0.6508444  3
   4898   4897   4900   4901     1  0.0000000  0.6508444  3
   4898   4897   4900   4902     1  0.0000000  0.6508444  3
   4899   4897   4894   4924     1  0.0000000  1.0460000  1
   4899   4897   4894   4924     1  0.0000000  0.0000000  3
   4899   4897   4900   4903     1  0.0000000  0.6508444  3
   4899   4897   4900   4901     1  0.0000000  0.6508444  3
   4899   4897   4900   4902     1  0.0000000  0.6508444  3
   4900   4903   4904   4905     1  0.0000000  1.2552000  3
   4900   4903   4904   4906     1  0.0000000  1.2552000  3
   4900   4903   4914   4915     1  0.0000000  1.2552000  3
   4900   4903   4914   4916     1  0.0000000  1.2552000  3
   4901   4900   4903   4904     1  0.0000000  1.2552000  3
   4901   4900   4903   4914     1  0.0000000  1.2552000  3
   4902   4900   4903   4904     1  0.0000000  1.2552000  3
   4902   4900   4903   4914     1  0.0000000  1.2552000  3
   4903   4904   4907   4908     1  0.0000000  0.6508444  3
   4903   4904   4907   4909     1  0.0000000  0.6508444  3
   4903   4914   4917   4918     1  0.0000000  0.6508444  3
   4903   4914   4917   4919     1  0.0000000  0.6508444  3
   4904   4903   4914   4915     1  0.0000000  1.2552000  3
   4904   4903   4914   4916     1  0.0000000  1.2552000  3
   4905   4904   4903   4914     1  0.0000000  1.2552000  3
   4905   4904   4907   4910     1  0.0000000  0.6508444  3
   4905   4904   4907   4908     1  0.0000000  0.6508444  3
   4905   4904   4907   4909     1  0.0000000  0.6508444  3
   4906   4904   4903   4914     1  0.0000000  1.2552000  3
   4906   4904   4907   4910     1  0.0000000  0.6508444  3
   4906   4904   4907   4908     1  0.0000000  0.6508444  3
   4906   4904   4907   4909     1  0.0000000  0.6508444  3
   4907   4910   4912   4913     1  180.0000771  9.6232000  2
   4908   4907   4910   4911     1  0.0000000  3.3472000  1
   4908   4907   4910   4911     1  0.0000000  0.0000000  2
   4908   4907   4910   4911     1  180.0000771  0.3347200  3
   4908   4907   4910   4912     1  180.0000771  0.0000000  2
   4909   4907   4910   4911     1  0.0000000  3.3472000  1
   4909   4907   4910   4911     1  0.0000000  0.0000000  2
   4909   4907   4910   4911     1  180.0000771  0.3347200  3
   4909   4907   4910   4912     1  180.0000771  0.0000000  2
   4911   4910   4912   4913     1  0.0000000  7.9496000  1
   4911   4910   4912   4913     1  180.0000771  9.6232000  2
   4915   4914   4917   4920     1  0.0000000  0.6508444  3
   4915   4914   4917   4918     1  0.0000000  0.6508444  3
   4915   4914   4917   4919     1  0.0000000  0.6508444  3
   4916   4914   4917   4920     1  0.0000000  0.6508444  3
   4916   4914   4917   4918     1  0.0000000  0.6508444  3
   4916   4914   4917   4919     1  0.0000000  0.6508444  3
   4917   4920   4922   4923     1  180.0000771  9.6232000  2
   4918   4917   4920   4921     1  0.0000000  3.3472000  1
   4918   4917   4920   4921     1  0.0000000  0.0000000  2
   4918   4917   4920   4921     1  180.0000771  0.3347200  3
   4918   4917   4920   4922     1  180.0000771  0.0000000  2
   4919   4917   4920   4921     1  0.0000000  3.3472000  1
   4919   4917   4920   4921     1  0.0000000  0.0000000  2
   4919   4917   4920   4921     1  180.0000771  0.3347200  3
   4919   4917   4920   4922     1  180.0000771  0.0000000  2
   4921   4920   4922   4923     1  0.0000000  7.9496000  1
   4921   4920   4922   4923     1  180.0000771  9.6232000  2
   4925   4928   4931   4932     1  0.0000000  0.6508444  3
   4925   4928   4931   4933     1  0.0000000  0.6508444  3
   4926   4925   4928   4931     1  0.0000000  0.6508444  3
   4926   4925   4928   4929     1  0.0000000  0.6508444  3
   4926   4925   4928   4930     1  0.0000000  0.6508444  3
   4927   4925   4928   4931     1  0.0000000  0.6508444  3
   4927   4925   4928   4929     1  0.0000000  0.6508444  3
   4927   4925   4928   4930     1  0.0000000  0.6508444  3
   4929   4928   4931   4934     1  0.0000000  0.6508444  3
   4929   4928   4931   4932     1  0.0000000  0.6508444  3
   4929   4928   4931   4933     1  0.0000000  0.6508444  3
   4929   4928   4925   4955     1  0.0000000  1.0460000  1
   4929   4928   4925   4955     1  0.0000000  0.0000000  3
   4930   4928   4931   4934     1  0.0000000  0.6508444  3
   4930   4928   4931   4932     1  0.0000000  0.6508444  3
   4930   4928   4931   4933     1  0.0000000  0.6508444  3
   4930   4928   4925   4955     1  0.0000000  1.0460000  1
   4930   4928   4925   4955     1  0.0000000  0.0000000  3
   4931   4934   4935   4936     1  0.0000000  1.2552000  3
   4931   4934   4935   4937     1  0.0000000  1.2552000  3
   4931   4934   4945   4946     1  0.0000000  1.2552000  3
   4931   4934   4945   4947     1  0.0000000  1.2552000  3
   4932   4931   4934   4935     1  0.0000000  1.2552000  3
   4932   4931   4934   4945     1  0.0000000  1.2552000  3
   4933   4931   4934   4935     1  0.0000000  1.2552000  3
   4933   4931   4934   4945     1  0.0000000  1.2552000  3
   4934   4935   4938   4939     1  0.0000000  0.6508444  3
   4934   4935   4938   4940     1  0.0000000  0.6508444  3
   4934   4945   4948   4949     1  0.0000000  0.6508444  3
   4934   4945   4948   4950     1  0.0000000  0.6508444  3
   4935   4934   4945   4946     1  0.0000000  1.2552000  3
   4935   4934   4945   4947     1  0.0000000  1.2552000  3
   4936   4935   4938   4941     1  0.0000000  0.6508444  3
   4936   4935   4938   4939     1  0.0000000  0.6508444  3
   4936   4935   4938   4940     1  0.0000000  0.6508444  3
   4936   4935   4934   4945     1  0.0000000  1.2552000  3
   4937   4935   4938   4941     1  0.0000000  0.6508444  3
   4937   4935   4938   4939     1  0.0000000  0.6508444  3
   4937   4935   4938   4940     1  0.0000000  0.6508444  3
   4937   4935   4934   4945     1  0.0000000  1.2552000  3
   4938   4941   4943   4944     1  180.0000771  9.6232000  2
   4939   4938   4941   4942     1  0.0000000  3.3472000  1
   4939   4938   4941   4942     1  0.0000000  0.0000000  2
   4939   4938   4941   4942     1  180.0000771  0.3347200  3
   4939   4938   4941   4943     1  180.0000771  0.0000000  2
   4940   4938   4941   4942     1  0.0000000  3.3472000  1
   4940   4938   4941   4942     1  0.0000000  0.0000000  2
   4940   4938   4941   4942     1  180.0000771  0.3347200  3
   4940   4938   4941   4943     1  180.0000771  0.0000000  2
   4942   4941   4943   4944     1  0.0000000  7.9496000  1
   4942   4941   4943   4944     1  180.0000771  9.6232000  2
   4946   4945   4948   4951     1  0.0000000  0.6508444  3
   4946   4945   4948   4949     1  0.0000000  0.6508444  3
   4946   4945   4948   4950     1  0.0000000  0.6508444  3
   4947   4945   4948   4951     1  0.0000000  0.6508444  3
   4947   4945   4948   4949     1  0.0000000  0.6508444  3
   4947   4945   4948   4950     1  0.0000000  0.6508444  3
   4948   4951   4953   4954     1  180.0000771  9.6232000  2
   4949   4948   4951   4952     1  0.0000000  3.3472000  1
   4949   4948   4951   4952     1  0.0000000  0.0000000  2
   4949   4948   4951   4952     1  180.0000771  0.3347200  3
   4949   4948   4951   4953     1  180.0000771  0.0000000  2
   4950   4948   4951   4952     1  0.0000000  3.3472000  1
   4950   4948   4951   4952     1  0.0000000  0.0000000  2
   4950   4948   4951   4952     1  180.0000771  0.3347200  3
   4950   4948   4951   4953     1  180.0000771  0.0000000  2
   4952   4951   4953   4954     1  0.0000000  7.9496000  1
   4952   4951   4953   4954     1  180.0000771  9.6232000  2
   4956   4959   4962   4963     1  0.0000000  0.6508444  3
   4956   4959   4962   4964     1  0.0000000  0.6508444  3
   4957   4956   4959   4962     1  0.0000000  0.6508444  3
   4957   4956   4959   4960     1  0.0000000  0.6508444  3
   4957   4956   4959   4961     1  0.0000000  0.6508444  3
   4958   4956   4959   4962     1  0.0000000  0.6508444  3
   4958   4956   4959   4960     1  0.0000000  0.6508444  3
   4958   4956   4959   4961     1  0.0000000  0.6508444  3
   4960   4959   4956   4986     1  0.0000000  1.0460000  1
   4960   4959   4956   4986     1  0.0000000  0.0000000  3
   4960   4959   4962   4965     1  0.0000000  0.6508444  3
   4960   4959   4962   4963     1  0.0000000  0.6508444  3
   4960   4959   4962   4964     1  0.0000000  0.6508444  3
   4961   4959   4956   4986     1  0.0000000  1.0460000  1
   4961   4959   4956   4986     1  0.0000000  0.0000000  3
   4961   4959   4962   4965     1  0.0000000  0.6508444  3
   4961   4959   4962   4963     1  0.0000000  0.6508444  3
   4961   4959   4962   4964     1  0.0000000  0.6508444  3
   4962   4965   4966   4967     1  0.0000000  1.2552000  3
   4962   4965   4966   4968     1  0.0000000  1.2552000  3
   4962   4965   4976   4977     1  0.0000000  1.2552000  3
   4962   4965   4976   4978     1  0.0000000  1.2552000  3
   4963   4962   4965   4966     1  0.0000000  1.2552000  3
   4963   4962   4965   4976     1  0.0000000  1.2552000  3
   4964   4962   4965   4966     1  0.0000000  1.2552000  3
   4964   4962   4965   4976     1  0.0000000  1.2552000  3
   4965   4966   4969   4970     1  0.0000000  0.6508444  3
   4965   4966   4969   4971     1  0.0000000  0.6508444  3
   4965   4976   4979   4980     1  0.0000000  0.6508444  3
   4965   4976   4979   4981     1  0.0000000  0.6508444  3
   4966   4965   4976   4977     1  0.0000000  1.2552000  3
   4966   4965   4976   4978     1  0.0000000  1.2552000  3
   4967   4966   4965   4976     1  0.0000000  1.2552000  3
   4967   4966   4969   4972     1  0.0000000  0.6508444  3
   4967   4966   4969   4970     1  0.0000000  0.6508444  3
   4967   4966   4969   4971     1  0.0000000  0.6508444  3
   4968   4966   4965   4976     1  0.0000000  1.2552000  3
   4968   4966   4969   4972     1  0.0000000  0.6508444  3
   4968   4966   4969   4970     1  0.0000000  0.6508444  3
   4968   4966   4969   4971     1  0.0000000  0.6508444  3
   4969   4972   4974   4975     1  180.0000771  9.6232000  2
   4970   4969   4972   4973     1  0.0000000  3.3472000  1
   4970   4969   4972   4973     1  0.0000000  0.0000000  2
   4970   4969   4972   4973     1  180.0000771  0.3347200  3
   4970   4969   4972   4974     1  180.0000771  0.0000000  2
   4971   4969   4972   4973     1  0.0000000  3.3472000  1
   4971   4969   4972   4973     1  0.0000000  0.0000000  2
   4971   4969   4972   4973     1  180.0000771  0.3347200  3
   4971   4969   4972   4974     1  180.0000771  0.0000000  2
   4973   4972   4974   4975     1  0.0000000  7.9496000  1
   4973   4972   4974   4975     1  180.0000771  9.6232000  2
   4977   4976   4979   4982     1  0.0000000  0.6508444  3
   4977   4976   4979   4980     1  0.0000000  0.6508444  3
   4977   4976   4979   4981     1  0.0000000  0.6508444  3
   4978   4976   4979   4982     1  0.0000000  0.6508444  3
   4978   4976   4979   4980     1  0.0000000  0.6508444  3
   4978   4976   4979   4981     1  0.0000000  0.6508444  3
   4979   4982   4984   4985     1  180.0000771  9.6232000  2
   4980   4979   4982   4983     1  0.0000000  3.3472000  1
   4980   4979   4982   4983     1  0.0000000  0.0000000  2
   4980   4979   4982   4983     1  180.0000771  0.3347200  3
   4980   4979   4982   4984     1  180.0000771  0.0000000  2
   4981   4979   4982   4983     1  0.0000000  3.3472000  1
   4981   4979   4982   4983     1  0.0000000  0.0000000  2
   4981   4979   4982   4983     1  180.0000771  0.3347200  3
   4981   4979   4982   4984     1  180.0000771  0.0000000  2
   4983   4982   4984   4985     1  0.0000000  7.9496000  1
   4983   4982   4984   4985     1  180.0000771  9.6232000  2
   4987   4990   4993   4994     1  0.0000000  0.6508444  3
   4987   4990   4993   4995     1  0.0000000  0.6508444  3
   4988   4987   4990   4993     1  0.0000000  0.6508444  3
   4988   4987   4990   4991     1  0.0000000  0.6508444  3
   4988   4987   4990   4992     1  0.0000000  0.6508444  3
   4989   4987   4990   4993     1  0.0000000  0.6508444  3
   4989   4987   4990   4991     1  0.0000000  0.6508444  3
   4989   4987   4990   4992     1  0.0000000  0.6508444  3
   4991   4990   4993   4996     1  0.0000000  0.6508444  3
   4991   4990   4993   4994     1  0.0000000  0.6508444  3
   4991   4990   4993   4995     1  0.0000000  0.6508444  3
   4991   4990   4987   5017     1  0.0000000  1.0460000  1
   4991   4990   4987   5017     1  0.0000000  0.0000000  3
   4992   4990   4993   4996     1  0.0000000  0.6508444  3
   4992   4990   4993   4994     1  0.0000000  0.6508444  3
   4992   4990   4993   4995     1  0.0000000  0.6508444  3
   4992   4990   4987   5017     1  0.0000000  1.0460000  1
   4992   4990   4987   5017     1  0.0000000  0.0000000  3
   4993   4996   4997   4998     1  0.0000000  1.2552000  3
   4993   4996   4997   4999     1  0.0000000  1.2552000  3
   4993   4996   5007   5008     1  0.0000000  1.2552000  3
   4993   4996   5007   5009     1  0.0000000  1.2552000  3
   4994   4993   4996   4997     1  0.0000000  1.2552000  3
   4994   4993   4996   5007     1  0.0000000  1.2552000  3
   4995   4993   4996   4997     1  0.0000000  1.2552000  3
   4995   4993   4996   5007     1  0.0000000  1.2552000  3
   4996   4997   5000   5001     1  0.0000000  0.6508444  3
   4996   4997   5000   5002     1  0.0000000  0.6508444  3
   4996   5007   5010   5011     1  0.0000000  0.6508444  3
   4996   5007   5010   5012     1  0.0000000  0.6508444  3
   4997   4996   5007   5008     1  0.0000000  1.2552000  3
   4997   4996   5007   5009     1  0.0000000  1.2552000  3
   4998   4997   5000   5003     1  0.0000000  0.6508444  3
   4998   4997   5000   5001     1  0.0000000  0.6508444  3
   4998   4997   5000   5002     1  0.0000000  0.6508444  3
   4998   4997   4996   5007     1  0.0000000  1.2552000  3
   4999   4997   5000   5003     1  0.0000000  0.6508444  3
   4999   4997   5000   5001     1  0.0000000  0.6508444  3
   4999   4997   5000   5002     1  0.0000000  0.6508444  3
   4999   4997   4996   5007     1  0.0000000  1.2552000  3
   5000   5003   5005   5006     1  180.0000771  9.6232000  2
   5001   5000   5003   5004     1  0.0000000  3.3472000  1
   5001   5000   5003   5004     1  0.0000000  0.0000000  2
   5001   5000   5003   5004     1  180.0000771  0.3347200  3
   5001   5000   5003   5005     1  180.0000771  0.0000000  2
   5002   5000   5003   5004     1  0.0000000  3.3472000  1
   5002   5000   5003   5004     1  0.0000000  0.0000000  2
   5002   5000   5003   5004     1  180.0000771  0.3347200  3
   5002   5000   5003   5005     1  180.0000771  0.0000000  2
   5004   5003   5005   5006     1  0.0000000  7.9496000  1
   5004   5003   5005   5006     1  180.0000771  9.6232000  2
   5008   5007   5010   5013     1  0.0000000  0.6508444  3
   5008   5007   5010   5011     1  0.0000000  0.6508444  3
   5008   5007   5010   5012     1  0.0000000  0.6508444  3
   5009   5007   5010   5013     1  0.0000000  0.6508444  3
   5009   5007   5010   5011     1  0.0000000  0.6508444  3
   5009   5007   5010   5012     1  0.0000000  0.6508444  3
   5010   5013   5015   5016     1  180.0000771  9.6232000  2
   5011   5010   5013   5014     1  0.0000000  3.3472000  1
   5011   5010   5013   5014     1  0.0000000  0.0000000  2
   5011   5010   5013   5014     1  180.0000771  0.3347200  3
   5011   5010   5013   5015     1  180.0000771  0.0000000  2
   5012   5010   5013   5014     1  0.0000000  3.3472000  1
   5012   5010   5013   5014     1  0.0000000  0.0000000  2
   5012   5010   5013   5014     1  180.0000771  0.3347200  3
   5012   5010   5013   5015     1  180.0000771  0.0000000  2
   5014   5013   5015   5016     1  0.0000000  7.9496000  1
   5014   5013   5015   5016     1  180.0000771  9.6232000  2
   5018   5021   5024   5025     1  0.0000000  0.6508444  3
   5018   5021   5024   5026     1  0.0000000  0.6508444  3
   5019   5018   5021   5024     1  0.0000000  0.6508444  3
   5019   5018   5021   5022     1  0.0000000  0.6508444  3
   5019   5018   5021   5023     1  0.0000000  0.6508444  3
   5020   5018   5021   5024     1  0.0000000  0.6508444  3
   5020   5018   5021   5022     1  0.0000000  0.6508444  3
   5020   5018   5021   5023     1  0.0000000  0.6508444  3
   5022   5021   5018   5048     1  0.0000000  1.0460000  1
   5022   5021   5018   5048     1  0.0000000  0.0000000  3
   5022   5021   5024   5027     1  0.0000000  0.6508444  3
   5022   5021   5024   5025     1  0.0000000  0.6508444  3
   5022   5021   5024   5026     1  0.0000000  0.6508444  3
   5023   5021   5018   5048     1  0.0000000  1.0460000  1
   5023   5021   5018   5048     1  0.0000000  0.0000000  3
   5023   5021   5024   5027     1  0.0000000  0.6508444  3
   5023   5021   5024   5025     1  0.0000000  0.6508444  3
   5023   5021   5024   5026     1  0.0000000  0.6508444  3
   5024   5027   5028   5029     1  0.0000000  1.2552000  3
   5024   5027   5028   5030     1  0.0000000  1.2552000  3
   5024   5027   5038   5039     1  0.0000000  1.2552000  3
   5024   5027   5038   5040     1  0.0000000  1.2552000  3
   5025   5024   5027   5028     1  0.0000000  1.2552000  3
   5025   5024   5027   5038     1  0.0000000  1.2552000  3
   5026   5024   5027   5028     1  0.0000000  1.2552000  3
   5026   5024   5027   5038     1  0.0000000  1.2552000  3
   5027   5028   5031   5032     1  0.0000000  0.6508444  3
   5027   5028   5031   5033     1  0.0000000  0.6508444  3
   5027   5038   5041   5042     1  0.0000000  0.6508444  3
   5027   5038   5041   5043     1  0.0000000  0.6508444  3
   5028   5027   5038   5039     1  0.0000000  1.2552000  3
   5028   5027   5038   5040     1  0.0000000  1.2552000  3
   5029   5028   5027   5038     1  0.0000000  1.2552000  3
   5029   5028   5031   5034     1  0.0000000  0.6508444  3
   5029   5028   5031   5032     1  0.0000000  0.6508444  3
   5029   5028   5031   5033     1  0.0000000  0.6508444  3
   5030   5028   5027   5038     1  0.0000000  1.2552000  3
   5030   5028   5031   5034     1  0.0000000  0.6508444  3
   5030   5028   5031   5032     1  0.0000000  0.6508444  3
   5030   5028   5031   5033     1  0.0000000  0.6508444  3
   5031   5034   5036   5037     1  180.0000771  9.6232000  2
   5032   5031   5034   5035     1  0.0000000  3.3472000  1
   5032   5031   5034   5035     1  0.0000000  0.0000000  2
   5032   5031   5034   5035     1  180.0000771  0.3347200  3
   5032   5031   5034   5036     1  180.0000771  0.0000000  2
   5033   5031   5034   5035     1  0.0000000  3.3472000  1
   5033   5031   5034   5035     1  0.0000000  0.0000000  2
   5033   5031   5034   5035     1  180.0000771  0.3347200  3
   5033   5031   5034   5036     1  180.0000771  0.0000000  2
   5035   5034   5036   5037     1  0.0000000  7.9496000  1
   5035   5034   5036   5037     1  180.0000771  9.6232000  2
   5039   5038   5041   5044     1  0.0000000  0.6508444  3
   5039   5038   5041   5042     1  0.0000000  0.6508444  3
   5039   5038   5041   5043     1  0.0000000  0.6508444  3
   5040   5038   5041   5044     1  0.0000000  0.6508444  3
   5040   5038   5041   5042     1  0.0000000  0.6508444  3
   5040   5038   5041   5043     1  0.0000000  0.6508444  3
   5041   5044   5046   5047     1  180.0000771  9.6232000  2
   5042   5041   5044   5045     1  0.0000000  3.3472000  1
   5042   5041   5044   5045     1  0.0000000  0.0000000  2
   5042   5041   5044   5045     1  180.0000771  0.3347200  3
   5042   5041   5044   5046     1  180.0000771  0.0000000  2
   5043   5041   5044   5045     1  0.0000000  3.3472000  1
   5043   5041   5044   5045     1  0.0000000  0.0000000  2
   5043   5041   5044   5045     1  180.0000771  0.3347200  3
   5043   5041   5044   5046     1  180.0000771  0.0000000  2
   5045   5044   5046   5047     1  0.0000000  7.9496000  1
   5045   5044   5046   5047     1  180.0000771  9.6232000  2
   5049   5052   5055   5056     1  0.0000000  0.6508444  3
   5049   5052   5055   5057     1  0.0000000  0.6508444  3
   5050   5049   5052   5055     1  0.0000000  0.6508444  3
   5050   5049   5052   5053     1  0.0000000  0.6508444  3
   5050   5049   5052   5054     1  0.0000000  0.6508444  3
   5051   5049   5052   5055     1  0.0000000  0.6508444  3
   5051   5049   5052   5053     1  0.0000000  0.6508444  3
   5051   5049   5052   5054     1  0.0000000  0.6508444  3
   5053   5052   5055   5058     1  0.0000000  0.6508444  3
   5053   5052   5055   5056     1  0.0000000  0.6508444  3
   5053   5052   5055   5057     1  0.0000000  0.6508444  3
   5053   5052   5049   5079     1  0.0000000  1.0460000  1
   5053   5052   5049   5079     1  0.0000000  0.0000000  3
   5054   5052   5055   5058     1  0.0000000  0.6508444  3
   5054   5052   5055   5056     1  0.0000000  0.6508444  3
   5054   5052   5055   5057     1  0.0000000  0.6508444  3
   5054   5052   5049   5079     1  0.0000000  1.0460000  1
   5054   5052   5049   5079     1  0.0000000  0.0000000  3
   5055   5058   5059   5060     1  0.0000000  1.2552000  3
   5055   5058   5059   5061     1  0.0000000  1.2552000  3
   5055   5058   5069   5070     1  0.0000000  1.2552000  3
   5055   5058   5069   5071     1  0.0000000  1.2552000  3
   5056   5055   5058   5059     1  0.0000000  1.2552000  3
   5056   5055   5058   5069     1  0.0000000  1.2552000  3
   5057   5055   5058   5059     1  0.0000000  1.2552000  3
   5057   5055   5058   5069     1  0.0000000  1.2552000  3
   5058   5059   5062   5063     1  0.0000000  0.6508444  3
   5058   5059   5062   5064     1  0.0000000  0.6508444  3
   5058   5069   5072   5073     1  0.0000000  0.6508444  3
   5058   5069   5072   5074     1  0.0000000  0.6508444  3
   5059   5058   5069   5070     1  0.0000000  1.2552000  3
   5059   5058   5069   5071     1  0.0000000  1.2552000  3
   5060   5059   5062   5065     1  0.0000000  0.6508444  3
   5060   5059   5062   5063     1  0.0000000  0.6508444  3
   5060   5059   5062   5064     1  0.0000000  0.6508444  3
   5060   5059   5058   5069     1  0.0000000  1.2552000  3
   5061   5059   5062   5065     1  0.0000000  0.6508444  3
   5061   5059   5062   5063     1  0.0000000  0.6508444  3
   5061   5059   5062   5064     1  0.0000000  0.6508444  3
   5061   5059   5058   5069     1  0.0000000  1.2552000  3
   5062   5065   5067   5068     1  180.0000771  9.6232000  2
   5063   5062   5065   5066     1  0.0000000  3.3472000  1
   5063   5062   5065   5066     1  0.0000000  0.0000000  2
   5063   5062   5065   5066     1  180.0000771  0.3347200  3
   5063   5062   5065   5067     1  180.0000771  0.0000000  2
   5064   5062   5065   5066     1  0.0000000  3.3472000  1
   5064   5062   5065   5066     1  0.0000000  0.0000000  2
   5064   5062   5065   5066     1  180.0000771  0.3347200  3
   5064   5062   5065   5067     1  180.0000771  0.0000000  2
   5066   5065   5067   5068     1  0.0000000  7.9496000  1
   5066   5065   5067   5068     1  180.0000771  9.6232000  2
   5070   5069   5072   5075     1  0.0000000  0.6508444  3
   5070   5069   5072   5073     1  0.0000000  0.6508444  3
   5070   5069   5072   5074     1  0.0000000  0.6508444  3
   5071   5069   5072   5075     1  0.0000000  0.6508444  3
   5071   5069   5072   5073     1  0.0000000  0.6508444  3
   5071   5069   5072   5074     1  0.0000000  0.6508444  3
   5072   5075   5077   5078     1  180.0000771  9.6232000  2
   5073   5072   5075   5076     1  0.0000000  3.3472000  1
   5073   5072   5075   5076     1  0.0000000  0.0000000  2
   5073   5072   5075   5076     1  180.0000771  0.3347200  3
   5073   5072   5075   5077     1  180.0000771  0.0000000  2
   5074   5072   5075   5076     1  0.0000000  3.3472000  1
   5074   5072   5075   5076     1  0.0000000  0.0000000  2
   5074   5072   5075   5076     1  180.0000771  0.3347200  3
   5074   5072   5075   5077     1  180.0000771  0.0000000  2
   5076   5075   5077   5078     1  0.0000000  7.9496000  1
   5076   5075   5077   5078     1  180.0000771  9.6232000  2
   5080   5083   5086   5087     1  0.0000000  0.6508444  3
   5080   5083   5086   5088     1  0.0000000  0.6508444  3
   5081   5080   5083   5086     1  0.0000000  0.6508444  3
   5081   5080   5083   5084     1  0.0000000  0.6508444  3
   5081   5080   5083   5085     1  0.0000000  0.6508444  3
   5082   5080   5083   5086     1  0.0000000  0.6508444  3
   5082   5080   5083   5084     1  0.0000000  0.6508444  3
   5082   5080   5083   5085     1  0.0000000  0.6508444  3
   5084   5083   5080   5110     1  0.0000000  1.0460000  1
   5084   5083   5080   5110     1  0.0000000  0.0000000  3
   5084   5083   5086   5089     1  0.0000000  0.6508444  3
   5084   5083   5086   5087     1  0.0000000  0.6508444  3
   5084   5083   5086   5088     1  0.0000000  0.6508444  3
   5085   5083   5080   5110     1  0.0000000  1.0460000  1
   5085   5083   5080   5110     1  0.0000000  0.0000000  3
   5085   5083   5086   5089     1  0.0000000  0.6508444  3
   5085   5083   5086   5087     1  0.0000000  0.6508444  3
   5085   5083   5086   5088     1  0.0000000  0.6508444  3
   5086   5089   5090   5091     1  0.0000000  1.2552000  3
   5086   5089   5090   5092     1  0.0000000  1.2552000  3
   5086   5089   5100   5101     1  0.0000000  1.2552000  3
   5086   5089   5100   5102     1  0.0000000  1.2552000  3
   5087   5086   5089   5090     1  0.0000000  1.2552000  3
   5087   5086   5089   5100     1  0.0000000  1.2552000  3
   5088   5086   5089   5090     1  0.0000000  1.2552000  3
   5088   5086   5089   5100     1  0.0000000  1.2552000  3
   5089   5090   5093   5094     1  0.0000000  0.6508444  3
   5089   5090   5093   5095     1  0.0000000  0.6508444  3
   5089   5100   5103   5104     1  0.0000000  0.6508444  3
   5089   5100   5103   5105     1  0.0000000  0.6508444  3
   5090   5089   5100   5101     1  0.0000000  1.2552000  3
   5090   5089   5100   5102     1  0.0000000  1.2552000  3
   5091   5090   5089   5100     1  0.0000000  1.2552000  3
   5091   5090   5093   5096     1  0.0000000  0.6508444  3
   5091   5090   5093   5094     1  0.0000000  0.6508444  3
   5091   5090   5093   5095     1  0.0000000  0.6508444  3
   5092   5090   5089   5100     1  0.0000000  1.2552000  3
   5092   5090   5093   5096     1  0.0000000  0.6508444  3
   5092   5090   5093   5094     1  0.0000000  0.6508444  3
   5092   5090   5093   5095     1  0.0000000  0.6508444  3
   5093   5096   5098   5099     1  180.0000771  9.6232000  2
   5094   5093   5096   5097     1  0.0000000  3.3472000  1
   5094   5093   5096   5097     1  0.0000000  0.0000000  2
   5094   5093   5096   5097     1  180.0000771  0.3347200  3
   5094   5093   5096   5098     1  180.0000771  0.0000000  2
   5095   5093   5096   5097     1  0.0000000  3.3472000  1
   5095   5093   5096   5097     1  0.0000000  0.0000000  2
   5095   5093   5096   5097     1  180.0000771  0.3347200  3
   5095   5093   5096   5098     1  180.0000771  0.0000000  2
   5097   5096   5098   5099     1  0.0000000  7.9496000  1
   5097   5096   5098   5099     1  180.0000771  9.6232000  2
   5101   5100   5103   5106     1  0.0000000  0.6508444  3
   5101   5100   5103   5104     1  0.0000000  0.6508444  3
   5101   5100   5103   5105     1  0.0000000  0.6508444  3
   5102   5100   5103   5106     1  0.0000000  0.6508444  3
   5102   5100   5103   5104     1  0.0000000  0.6508444  3
   5102   5100   5103   5105     1  0.0000000  0.6508444  3
   5103   5106   5108   5109     1  180.0000771  9.6232000  2
   5104   5103   5106   5107     1  0.0000000  3.3472000  1
   5104   5103   5106   5107     1  0.0000000  0.0000000  2
   5104   5103   5106   5107     1  180.0000771  0.3347200  3
   5104   5103   5106   5108     1  180.0000771  0.0000000  2
   5105   5103   5106   5107     1  0.0000000  3.3472000  1
   5105   5103   5106   5107     1  0.0000000  0.0000000  2
   5105   5103   5106   5107     1  180.0000771  0.3347200  3
   5105   5103   5106   5108     1  180.0000771  0.0000000  2
   5107   5106   5108   5109     1  0.0000000  7.9496000  1
   5107   5106   5108   5109     1  180.0000771  9.6232000  2
   5111   5114   5117   5118     1  0.0000000  0.6508444  3
   5111   5114   5117   5119     1  0.0000000  0.6508444  3
   5112   5111   5114   5117     1  0.0000000  0.6508444  3
   5112   5111   5114   5115     1  0.0000000  0.6508444  3
   5112   5111   5114   5116     1  0.0000000  0.6508444  3
   5113   5111   5114   5117     1  0.0000000  0.6508444  3
   5113   5111   5114   5115     1  0.0000000  0.6508444  3
   5113   5111   5114   5116     1  0.0000000  0.6508444  3
   5115   5114   5117   5120     1  0.0000000  0.6508444  3
   5115   5114   5117   5118     1  0.0000000  0.6508444  3
   5115   5114   5117   5119     1  0.0000000  0.6508444  3
   5115   5114   5111   5141     1  0.0000000  1.0460000  1
   5115   5114   5111   5141     1  0.0000000  0.0000000  3
   5116   5114   5117   5120     1  0.0000000  0.6508444  3
   5116   5114   5117   5118     1  0.0000000  0.6508444  3
   5116   5114   5117   5119     1  0.0000000  0.6508444  3
   5116   5114   5111   5141     1  0.0000000  1.0460000  1
   5116   5114   5111   5141     1  0.0000000  0.0000000  3
   5117   5120   5121   5122     1  0.0000000  1.2552000  3
   5117   5120   5121   5123     1  0.0000000  1.2552000  3
   5117   5120   5131   5132     1  0.0000000  1.2552000  3
   5117   5120   5131   5133     1  0.0000000  1.2552000  3
   5118   5117   5120   5121     1  0.0000000  1.2552000  3
   5118   5117   5120   5131     1  0.0000000  1.2552000  3
   5119   5117   5120   5121     1  0.0000000  1.2552000  3
   5119   5117   5120   5131     1  0.0000000  1.2552000  3
   5120   5121   5124   5125     1  0.0000000  0.6508444  3
   5120   5121   5124   5126     1  0.0000000  0.6508444  3
   5120   5131   5134   5135     1  0.0000000  0.6508444  3
   5120   5131   5134   5136     1  0.0000000  0.6508444  3
   5121   5120   5131   5132     1  0.0000000  1.2552000  3
   5121   5120   5131   5133     1  0.0000000  1.2552000  3
   5122   5121   5124   5127     1  0.0000000  0.6508444  3
   5122   5121   5124   5125     1  0.0000000  0.6508444  3
   5122   5121   5124   5126     1  0.0000000  0.6508444  3
   5122   5121   5120   5131     1  0.0000000  1.2552000  3
   5123   5121   5124   5127     1  0.0000000  0.6508444  3
   5123   5121   5124   5125     1  0.0000000  0.6508444  3
   5123   5121   5124   5126     1  0.0000000  0.6508444  3
   5123   5121   5120   5131     1  0.0000000  1.2552000  3
   5124   5127   5129   5130     1  180.0000771  9.6232000  2
   5125   5124   5127   5128     1  0.0000000  3.3472000  1
   5125   5124   5127   5128     1  0.0000000  0.0000000  2
   5125   5124   5127   5128     1  180.0000771  0.3347200  3
   5125   5124   5127   5129     1  180.0000771  0.0000000  2
   5126   5124   5127   5128     1  0.0000000  3.3472000  1
   5126   5124   5127   5128     1  0.0000000  0.0000000  2
   5126   5124   5127   5128     1  180.0000771  0.3347200  3
   5126   5124   5127   5129     1  180.0000771  0.0000000  2
   5128   5127   5129   5130     1  0.0000000  7.9496000  1
   5128   5127   5129   5130     1  180.0000771  9.6232000  2
   5132   5131   5134   5137     1  0.0000000  0.6508444  3
   5132   5131   5134   5135     1  0.0000000  0.6508444  3
   5132   5131   5134   5136     1  0.0000000  0.6508444  3
   5133   5131   5134   5137     1  0.0000000  0.6508444  3
   5133   5131   5134   5135     1  0.0000000  0.6508444  3
   5133   5131   5134   5136     1  0.0000000  0.6508444  3
   5134   5137   5139   5140     1  180.0000771  9.6232000  2
   5135   5134   5137   5138     1  0.0000000  3.3472000  1
   5135   5134   5137   5138     1  0.0000000  0.0000000  2
   5135   5134   5137   5138     1  180.0000771  0.3347200  3
   5135   5134   5137   5139     1  180.0000771  0.0000000  2
   5136   5134   5137   5138     1  0.0000000  3.3472000  1
   5136   5134   5137   5138     1  0.0000000  0.0000000  2
   5136   5134   5137   5138     1  180.0000771  0.3347200  3
   5136   5134   5137   5139     1  180.0000771  0.0000000  2
   5138   5137   5139   5140     1  0.0000000  7.9496000  1
   5138   5137   5139   5140     1  180.0000771  9.6232000  2
   5142   5145   5148   5149     1  0.0000000  0.6508444  3
   5142   5145   5148   5150     1  0.0000000  0.6508444  3
   5143   5142   5145   5148     1  0.0000000  0.6508444  3
   5143   5142   5145   5146     1  0.0000000  0.6508444  3
   5143   5142   5145   5147     1  0.0000000  0.6508444  3
   5144   5142   5145   5148     1  0.0000000  0.6508444  3
   5144   5142   5145   5146     1  0.0000000  0.6508444  3
   5144   5142   5145   5147     1  0.0000000  0.6508444  3
   5146   5145   5142   5172     1  0.0000000  1.0460000  1
   5146   5145   5142   5172     1  0.0000000  0.0000000  3
   5146   5145   5148   5151     1  0.0000000  0.6508444  3
   5146   5145   5148   5149     1  0.0000000  0.6508444  3
   5146   5145   5148   5150     1  0.0000000  0.6508444  3
   5147   5145   5142   5172     1  0.0000000  1.0460000  1
   5147   5145   5142   5172     1  0.0000000  0.0000000  3
   5147   5145   5148   5151     1  0.0000000  0.6508444  3
   5147   5145   5148   5149     1  0.0000000  0.6508444  3
   5147   5145   5148   5150     1  0.0000000  0.6508444  3
   5148   5151   5152   5153     1  0.0000000  1.2552000  3
   5148   5151   5152   5154     1  0.0000000  1.2552000  3
   5148   5151   5162   5163     1  0.0000000  1.2552000  3
   5148   5151   5162   5164     1  0.0000000  1.2552000  3
   5149   5148   5151   5152     1  0.0000000  1.2552000  3
   5149   5148   5151   5162     1  0.0000000  1.2552000  3
   5150   5148   5151   5152     1  0.0000000  1.2552000  3
   5150   5148   5151   5162     1  0.0000000  1.2552000  3
   5151   5152   5155   5156     1  0.0000000  0.6508444  3
   5151   5152   5155   5157     1  0.0000000  0.6508444  3
   5151   5162   5165   5166     1  0.0000000  0.6508444  3
   5151   5162   5165   5167     1  0.0000000  0.6508444  3
   5152   5151   5162   5163     1  0.0000000  1.2552000  3
   5152   5151   5162   5164     1  0.0000000  1.2552000  3
   5153   5152   5151   5162     1  0.0000000  1.2552000  3
   5153   5152   5155   5158     1  0.0000000  0.6508444  3
   5153   5152   5155   5156     1  0.0000000  0.6508444  3
   5153   5152   5155   5157     1  0.0000000  0.6508444  3
   5154   5152   5151   5162     1  0.0000000  1.2552000  3
   5154   5152   5155   5158     1  0.0000000  0.6508444  3
   5154   5152   5155   5156     1  0.0000000  0.6508444  3
   5154   5152   5155   5157     1  0.0000000  0.6508444  3
   5155   5158   5160   5161     1  180.0000771  9.6232000  2
   5156   5155   5158   5159     1  0.0000000  3.3472000  1
   5156   5155   5158   5159     1  0.0000000  0.0000000  2
   5156   5155   5158   5159     1  180.0000771  0.3347200  3
   5156   5155   5158   5160     1  180.0000771  0.0000000  2
   5157   5155   5158   5159     1  0.0000000  3.3472000  1
   5157   5155   5158   5159     1  0.0000000  0.0000000  2
   5157   5155   5158   5159     1  180.0000771  0.3347200  3
   5157   5155   5158   5160     1  180.0000771  0.0000000  2
   5159   5158   5160   5161     1  0.0000000  7.9496000  1
   5159   5158   5160   5161     1  180.0000771  9.6232000  2
   5163   5162   5165   5168     1  0.0000000  0.6508444  3
   5163   5162   5165   5166     1  0.0000000  0.6508444  3
   5163   5162   5165   5167     1  0.0000000  0.6508444  3
   5164   5162   5165   5168     1  0.0000000  0.6508444  3
   5164   5162   5165   5166     1  0.0000000  0.6508444  3
   5164   5162   5165   5167     1  0.0000000  0.6508444  3
   5165   5168   5170   5171     1  180.0000771  9.6232000  2
   5166   5165   5168   5169     1  0.0000000  3.3472000  1
   5166   5165   5168   5169     1  0.0000000  0.0000000  2
   5166   5165   5168   5169     1  180.0000771  0.3347200  3
   5166   5165   5168   5170     1  180.0000771  0.0000000  2
   5167   5165   5168   5169     1  0.0000000  3.3472000  1
   5167   5165   5168   5169     1  0.0000000  0.0000000  2
   5167   5165   5168   5169     1  180.0000771  0.3347200  3
   5167   5165   5168   5170     1  180.0000771  0.0000000  2
   5169   5168   5170   5171     1  0.0000000  7.9496000  1
   5169   5168   5170   5171     1  180.0000771  9.6232000  2
   5173   5176   5179   5180     1  0.0000000  0.6508444  3
   5173   5176   5179   5181     1  0.0000000  0.6508444  3
   5174   5173   5176   5179     1  0.0000000  0.6508444  3
   5174   5173   5176   5177     1  0.0000000  0.6508444  3
   5174   5173   5176   5178     1  0.0000000  0.6508444  3
   5175   5173   5176   5179     1  0.0000000  0.6508444  3
   5175   5173   5176   5177     1  0.0000000  0.6508444  3
   5175   5173   5176   5178     1  0.0000000  0.6508444  3
   5177   5176   5179   5182     1  0.0000000  0.6508444  3
   5177   5176   5179   5180     1  0.0000000  0.6508444  3
   5177   5176   5179   5181     1  0.0000000  0.6508444  3
   5177   5176   5173   5203     1  0.0000000  1.0460000  1
   5177   5176   5173   5203     1  0.0000000  0.0000000  3
   5178   5176   5179   5182     1  0.0000000  0.6508444  3
   5178   5176   5179   5180     1  0.0000000  0.6508444  3
   5178   5176   5179   5181     1  0.0000000  0.6508444  3
   5178   5176   5173   5203     1  0.0000000  1.0460000  1
   5178   5176   5173   5203     1  0.0000000  0.0000000  3
   5179   5182   5183   5184     1  0.0000000  1.2552000  3
   5179   5182   5183   5185     1  0.0000000  1.2552000  3
   5179   5182   5193   5194     1  0.0000000  1.2552000  3
   5179   5182   5193   5195     1  0.0000000  1.2552000  3
   5180   5179   5182   5183     1  0.0000000  1.2552000  3
   5180   5179   5182   5193     1  0.0000000  1.2552000  3
   5181   5179   5182   5183     1  0.0000000  1.2552000  3
   5181   5179   5182   5193     1  0.0000000  1.2552000  3
   5182   5183   5186   5187     1  0.0000000  0.6508444  3
   5182   5183   5186   5188     1  0.0000000  0.6508444  3
   5182   5193   5196   5197     1  0.0000000  0.6508444  3
   5182   5193   5196   5198     1  0.0000000  0.6508444  3
   5183   5182   5193   5194     1  0.0000000  1.2552000  3
   5183   5182   5193   5195     1  0.0000000  1.2552000  3
   5184   5183   5186   5189     1  0.0000000  0.6508444  3
   5184   5183   5186   5187     1  0.0000000  0.6508444  3
   5184   5183   5186   5188     1  0.0000000  0.6508444  3
   5184   5183   5182   5193     1  0.0000000  1.2552000  3
   5185   5183   5186   5189     1  0.0000000  0.6508444  3
   5185   5183   5186   5187     1  0.0000000  0.6508444  3
   5185   5183   5186   5188     1  0.0000000  0.6508444  3
   5185   5183   5182   5193     1  0.0000000  1.2552000  3
   5186   5189   5191   5192     1  180.0000771  9.6232000  2
   5187   5186   5189   5190     1  0.0000000  3.3472000  1
   5187   5186   5189   5190     1  0.0000000  0.0000000  2
   5187   5186   5189   5190     1  180.0000771  0.3347200  3
   5187   5186   5189   5191     1  180.0000771  0.0000000  2
   5188   5186   5189   5190     1  0.0000000  3.3472000  1
   5188   5186   5189   5190     1  0.0000000  0.0000000  2
   5188   5186   5189   5190     1  180.0000771  0.3347200  3
   5188   5186   5189   5191     1  180.0000771  0.0000000  2
   5190   5189   5191   5192     1  0.0000000  7.9496000  1
   5190   5189   5191   5192     1  180.0000771  9.6232000  2
   5194   5193   5196   5199     1  0.0000000  0.6508444  3
   5194   5193   5196   5197     1  0.0000000  0.6508444  3
   5194   5193   5196   5198     1  0.0000000  0.6508444  3
   5195   5193   5196   5199     1  0.0000000  0.6508444  3
   5195   5193   5196   5197     1  0.0000000  0.6508444  3
   5195   5193   5196   5198     1  0.0000000  0.6508444  3
   5196   5199   5201   5202     1  180.0000771  9.6232000  2
   5197   5196   5199   5200     1  0.0000000  3.3472000  1
   5197   5196   5199   5200     1  0.0000000  0.0000000  2
   5197   5196   5199   5200     1  180.0000771  0.3347200  3
   5197   5196   5199   5201     1  180.0000771  0.0000000  2
   5198   5196   5199   5200     1  0.0000000  3.3472000  1
   5198   5196   5199   5200     1  0.0000000  0.0000000  2
   5198   5196   5199   5200     1  180.0000771  0.3347200  3
   5198   5196   5199   5201     1  180.0000771  0.0000000  2
   5200   5199   5201   5202     1  0.0000000  7.9496000  1
   5200   5199   5201   5202     1  180.0000771  9.6232000  2
   5204   5207   5210   5211     1  0.0000000  0.6508444  3
   5204   5207   5210   5212     1  0.0000000  0.6508444  3
   5205   5204   5207   5210     1  0.0000000  0.6508444  3
   5205   5204   5207   5208     1  0.0000000  0.6508444  3
   5205   5204   5207   5209     1  0.0000000  0.6508444  3
   5206   5204   5207   5210     1  0.0000000  0.6508444  3
   5206   5204   5207   5208     1  0.0000000  0.6508444  3
   5206   5204   5207   5209     1  0.0000000  0.6508444  3
   5208   5207   5204   5234     1  0.0000000  1.0460000  1
   5208   5207   5204   5234     1  0.0000000  0.0000000  3
   5208   5207   5210   5213     1  0.0000000  0.6508444  3
   5208   5207   5210   5211     1  0.0000000  0.6508444  3
   5208   5207   5210   5212     1  0.0000000  0.6508444  3
   5209   5207   5204   5234     1  0.0000000  1.0460000  1
   5209   5207   5204   5234     1  0.0000000  0.0000000  3
   5209   5207   5210   5213     1  0.0000000  0.6508444  3
   5209   5207   5210   5211     1  0.0000000  0.6508444  3
   5209   5207   5210   5212     1  0.0000000  0.6508444  3
   5210   5213   5214   5215     1  0.0000000  1.2552000  3
   5210   5213   5214   5216     1  0.0000000  1.2552000  3
   5210   5213   5224   5225     1  0.0000000  1.2552000  3
   5210   5213   5224   5226     1  0.0000000  1.2552000  3
   5211   5210   5213   5214     1  0.0000000  1.2552000  3
   5211   5210   5213   5224     1  0.0000000  1.2552000  3
   5212   5210   5213   5214     1  0.0000000  1.2552000  3
   5212   5210   5213   5224     1  0.0000000  1.2552000  3
   5213   5214   5217   5218     1  0.0000000  0.6508444  3
   5213   5214   5217   5219     1  0.0000000  0.6508444  3
   5213   5224   5227   5228     1  0.0000000  0.6508444  3
   5213   5224   5227   5229     1  0.0000000  0.6508444  3
   5214   5213   5224   5225     1  0.0000000  1.2552000  3
   5214   5213   5224   5226     1  0.0000000  1.2552000  3
   5215   5214   5213   5224     1  0.0000000  1.2552000  3
   5215   5214   5217   5220     1  0.0000000  0.6508444  3
   5215   5214   5217   5218     1  0.0000000  0.6508444  3
   5215   5214   5217   5219     1  0.0000000  0.6508444  3
   5216   5214   5213   5224     1  0.0000000  1.2552000  3
   5216   5214   5217   5220     1  0.0000000  0.6508444  3
   5216   5214   5217   5218     1  0.0000000  0.6508444  3
   5216   5214   5217   5219     1  0.0000000  0.6508444  3
   5217   5220   5222   5223     1  180.0000771  9.6232000  2
   5218   5217   5220   5221     1  0.0000000  3.3472000  1
   5218   5217   5220   5221     1  0.0000000  0.0000000  2
   5218   5217   5220   5221     1  180.0000771  0.3347200  3
   5218   5217   5220   5222     1  180.0000771  0.0000000  2
   5219   5217   5220   5221     1  0.0000000  3.3472000  1
   5219   5217   5220   5221     1  0.0000000  0.0000000  2
   5219   5217   5220   5221     1  180.0000771  0.3347200  3
   5219   5217   5220   5222     1  180.0000771  0.0000000  2
   5221   5220   5222   5223     1  0.0000000  7.9496000  1
   5221   5220   5222   5223     1  180.0000771  9.6232000  2
   5225   5224   5227   5230     1  0.0000000  0.6508444  3
   5225   5224   5227   5228     1  0.0000000  0.6508444  3
   5225   5224   5227   5229     1  0.0000000  0.6508444  3
   5226   5224   5227   5230     1  0.0000000  0.6508444  3
   5226   5224   5227   5228     1  0.0000000  0.6508444  3
   5226   5224   5227   5229     1  0.0000000  0.6508444  3
   5227   5230   5232   5233     1  180.0000771  9.6232000  2
   5228   5227   5230   5231     1  0.0000000  3.3472000  1
   5228   5227   5230   5231     1  0.0000000  0.0000000  2
   5228   5227   5230   5231     1  180.0000771  0.3347200  3
   5228   5227   5230   5232     1  180.0000771  0.0000000  2
   5229   5227   5230   5231     1  0.0000000  3.3472000  1
   5229   5227   5230   5231     1  0.0000000  0.0000000  2
   5229   5227   5230   5231     1  180.0000771  0.3347200  3
   5229   5227   5230   5232     1  180.0000771  0.0000000  2
   5231   5230   5232   5233     1  0.0000000  7.9496000  1
   5231   5230   5232   5233     1  180.0000771  9.6232000  2
   5235   5238   5241   5242     1  0.0000000  0.6508444  3
   5235   5238   5241   5243     1  0.0000000  0.6508444  3
   5236   5235   5238   5241     1  0.0000000  0.6508444  3
   5236   5235   5238   5239     1  0.0000000  0.6508444  3
   5236   5235   5238   5240     1  0.0000000  0.6508444  3
   5237   5235   5238   5241     1  0.0000000  0.6508444  3
   5237   5235   5238   5239     1  0.0000000  0.6508444  3
   5237   5235   5238   5240     1  0.0000000  0.6508444  3
   5239   5238   5241   5244     1  0.0000000  0.6508444  3
   5239   5238   5241   5242     1  0.0000000  0.6508444  3
   5239   5238   5241   5243     1  0.0000000  0.6508444  3
   5239   5238   5235   5265     1  0.0000000  1.0460000  1
   5239   5238   5235   5265     1  0.0000000  0.0000000  3
   5240   5238   5241   5244     1  0.0000000  0.6508444  3
   5240   5238   5241   5242     1  0.0000000  0.6508444  3
   5240   5238   5241   5243     1  0.0000000  0.6508444  3
   5240   5238   5235   5265     1  0.0000000  1.0460000  1
   5240   5238   5235   5265     1  0.0000000  0.0000000  3
   5241   5244   5245   5246     1  0.0000000  1.2552000  3
   5241   5244   5245   5247     1  0.0000000  1.2552000  3
   5241   5244   5255   5256     1  0.0000000  1.2552000  3
   5241   5244   5255   5257     1  0.0000000  1.2552000  3
   5242   5241   5244   5245     1  0.0000000  1.2552000  3
   5242   5241   5244   5255     1  0.0000000  1.2552000  3
   5243   5241   5244   5245     1  0.0000000  1.2552000  3
   5243   5241   5244   5255     1  0.0000000  1.2552000  3
   5244   5245   5248   5249     1  0.0000000  0.6508444  3
   5244   5245   5248   5250     1  0.0000000  0.6508444  3
   5244   5255   5258   5259     1  0.0000000  0.6508444  3
   5244   5255   5258   5260     1  0.0000000  0.6508444  3
   5245   5244   5255   5256     1  0.0000000  1.2552000  3
   5245   5244   5255   5257     1  0.0000000  1.2552000  3
   5246   5245   5248   5251     1  0.0000000  0.6508444  3
   5246   5245   5248   5249     1  0.0000000  0.6508444  3
   5246   5245   5248   5250     1  0.0000000  0.6508444  3
   5246   5245   5244   5255     1  0.0000000  1.2552000  3
   5247   5245   5248   5251     1  0.0000000  0.6508444  3
   5247   5245   5248   5249     1  0.0000000  0.6508444  3
   5247   5245   5248   5250     1  0.0000000  0.6508444  3
   5247   5245   5244   5255     1  0.0000000  1.2552000  3
   5248   5251   5253   5254     1  180.0000771  9.6232000  2
   5249   5248   5251   5252     1  0.0000000  3.3472000  1
   5249   5248   5251   5252     1  0.0000000  0.0000000  2
   5249   5248   5251   5252     1  180.0000771  0.3347200  3
   5249   5248   5251   5253     1  180.0000771  0.0000000  2
   5250   5248   5251   5252     1  0.0000000  3.3472000  1
   5250   5248   5251   5252     1  0.0000000  0.0000000  2
   5250   5248   5251   5252     1  180.0000771  0.3347200  3
   5250   5248   5251   5253     1  180.0000771  0.0000000  2
   5252   5251   5253   5254     1  0.0000000  7.9496000  1
   5252   5251   5253   5254     1  180.0000771  9.6232000  2
   5256   5255   5258   5261     1  0.0000000  0.6508444  3
   5256   5255   5258   5259     1  0.0000000  0.6508444  3
   5256   5255   5258   5260     1  0.0000000  0.6508444  3
   5257   5255   5258   5261     1  0.0000000  0.6508444  3
   5257   5255   5258   5259     1  0.0000000  0.6508444  3
   5257   5255   5258   5260     1  0.0000000  0.6508444  3
   5258   5261   5263   5264     1  180.0000771  9.6232000  2
   5259   5258   5261   5262     1  0.0000000  3.3472000  1
   5259   5258   5261   5262     1  0.0000000  0.0000000  2
   5259   5258   5261   5262     1  180.0000771  0.3347200  3
   5259   5258   5261   5263     1  180.0000771  0.0000000  2
   5260   5258   5261   5262     1  0.0000000  3.3472000  1
   5260   5258   5261   5262     1  0.0000000  0.0000000  2
   5260   5258   5261   5262     1  180.0000771  0.3347200  3
   5260   5258   5261   5263     1  180.0000771  0.0000000  2
   5262   5261   5263   5264     1  0.0000000  7.9496000  1
   5262   5261   5263   5264     1  180.0000771  9.6232000  2
   5266   5269   5272   5273     1  0.0000000  0.6508444  3
   5266   5269   5272   5274     1  0.0000000  0.6508444  3
   5267   5266   5269   5272     1  0.0000000  0.6508444  3
   5267   5266   5269   5270     1  0.0000000  0.6508444  3
   5267   5266   5269   5271     1  0.0000000  0.6508444  3
   5268   5266   5269   5272     1  0.0000000  0.6508444  3
   5268   5266   5269   5270     1  0.0000000  0.6508444  3
   5268   5266   5269   5271     1  0.0000000  0.6508444  3
   5270   5269   5266   5296     1  0.0000000  1.0460000  1
   5270   5269   5266   5296     1  0.0000000  0.0000000  3
   5270   5269   5272   5275     1  0.0000000  0.6508444  3
   5270   5269   5272   5273     1  0.0000000  0.6508444  3
   5270   5269   5272   5274     1  0.0000000  0.6508444  3
   5271   5269   5266   5296     1  0.0000000  1.0460000  1
   5271   5269   5266   5296     1  0.0000000  0.0000000  3
   5271   5269   5272   5275     1  0.0000000  0.6508444  3
   5271   5269   5272   5273     1  0.0000000  0.6508444  3
   5271   5269   5272   5274     1  0.0000000  0.6508444  3
   5272   5275   5276   5277     1  0.0000000  1.2552000  3
   5272   5275   5276   5278     1  0.0000000  1.2552000  3
   5272   5275   5286   5287     1  0.0000000  1.2552000  3
   5272   5275   5286   5288     1  0.0000000  1.2552000  3
   5273   5272   5275   5276     1  0.0000000  1.2552000  3
   5273   5272   5275   5286     1  0.0000000  1.2552000  3
   5274   5272   5275   5276     1  0.0000000  1.2552000  3
   5274   5272   5275   5286     1  0.0000000  1.2552000  3
   5275   5276   5279   5280     1  0.0000000  0.6508444  3
   5275   5276   5279   5281     1  0.0000000  0.6508444  3
   5275   5286   5289   5290     1  0.0000000  0.6508444  3
   5275   5286   5289   5291     1  0.0000000  0.6508444  3
   5276   5275   5286   5287     1  0.0000000  1.2552000  3
   5276   5275   5286   5288     1  0.0000000  1.2552000  3
   5277   5276   5275   5286     1  0.0000000  1.2552000  3
   5277   5276   5279   5282     1  0.0000000  0.6508444  3
   5277   5276   5279   5280     1  0.0000000  0.6508444  3
   5277   5276   5279   5281     1  0.0000000  0.6508444  3
   5278   5276   5275   5286     1  0.0000000  1.2552000  3
   5278   5276   5279   5282     1  0.0000000  0.6508444  3
   5278   5276   5279   5280     1  0.0000000  0.6508444  3
   5278   5276   5279   5281     1  0.0000000  0.6508444  3
   5279   5282   5284   5285     1  180.0000771  9.6232000  2
   5280   5279   5282   5283     1  0.0000000  3.3472000  1
   5280   5279   5282   5283     1  0.0000000  0.0000000  2
   5280   5279   5282   5283     1  180.0000771  0.3347200  3
   5280   5279   5282   5284     1  180.0000771  0.0000000  2
   5281   5279   5282   5283     1  0.0000000  3.3472000  1
   5281   5279   5282   5283     1  0.0000000  0.0000000  2
   5281   5279   5282   5283     1  180.0000771  0.3347200  3
   5281   5279   5282   5284     1  180.0000771  0.0000000  2
   5283   5282   5284   5285     1  0.0000000  7.9496000  1
   5283   5282   5284   5285     1  180.0000771  9.6232000  2
   5287   5286   5289   5292     1  0.0000000  0.6508444  3
   5287   5286   5289   5290     1  0.0000000  0.6508444  3
   5287   5286   5289   5291     1  0.0000000  0.6508444  3
   5288   5286   5289   5292     1  0.0000000  0.6508444  3
   5288   5286   5289   5290     1  0.0000000  0.6508444  3
   5288   5286   5289   5291     1  0.0000000  0.6508444  3
   5289   5292   5294   5295     1  180.0000771  9.6232000  2
   5290   5289   5292   5293     1  0.0000000  3.3472000  1
   5290   5289   5292   5293     1  0.0000000  0.0000000  2
   5290   5289   5292   5293     1  180.0000771  0.3347200  3
   5290   5289   5292   5294     1  180.0000771  0.0000000  2
   5291   5289   5292   5293     1  0.0000000  3.3472000  1
   5291   5289   5292   5293     1  0.0000000  0.0000000  2
   5291   5289   5292   5293     1  180.0000771  0.3347200  3
   5291   5289   5292   5294     1  180.0000771  0.0000000  2
   5293   5292   5294   5295     1  0.0000000  7.9496000  1
   5293   5292   5294   5295     1  180.0000771  9.6232000  2
   5297   5300   5303   5304     1  0.0000000  0.6508444  3
   5297   5300   5303   5305     1  0.0000000  0.6508444  3
   5298   5297   5300   5303     1  0.0000000  0.6508444  3
   5298   5297   5300   5301     1  0.0000000  0.6508444  3
   5298   5297   5300   5302     1  0.0000000  0.6508444  3
   5299   5297   5300   5303     1  0.0000000  0.6508444  3
   5299   5297   5300   5301     1  0.0000000  0.6508444  3
   5299   5297   5300   5302     1  0.0000000  0.6508444  3
   5301   5300   5303   5306     1  0.0000000  0.6508444  3
   5301   5300   5303   5304     1  0.0000000  0.6508444  3
   5301   5300   5303   5305     1  0.0000000  0.6508444  3
   5301   5300   5297   5327     1  0.0000000  1.0460000  1
   5301   5300   5297   5327     1  0.0000000  0.0000000  3
   5302   5300   5303   5306     1  0.0000000  0.6508444  3
   5302   5300   5303   5304     1  0.0000000  0.6508444  3
   5302   5300   5303   5305     1  0.0000000  0.6508444  3
   5302   5300   5297   5327     1  0.0000000  1.0460000  1
   5302   5300   5297   5327     1  0.0000000  0.0000000  3
   5303   5306   5307   5308     1  0.0000000  1.2552000  3
   5303   5306   5307   5309     1  0.0000000  1.2552000  3
   5303   5306   5317   5318     1  0.0000000  1.2552000  3
   5303   5306   5317   5319     1  0.0000000  1.2552000  3
   5304   5303   5306   5307     1  0.0000000  1.2552000  3
   5304   5303   5306   5317     1  0.0000000  1.2552000  3
   5305   5303   5306   5307     1  0.0000000  1.2552000  3
   5305   5303   5306   5317     1  0.0000000  1.2552000  3
   5306   5307   5310   5311     1  0.0000000  0.6508444  3
   5306   5307   5310   5312     1  0.0000000  0.6508444  3
   5306   5317   5320   5321     1  0.0000000  0.6508444  3
   5306   5317   5320   5322     1  0.0000000  0.6508444  3
   5307   5306   5317   5318     1  0.0000000  1.2552000  3
   5307   5306   5317   5319     1  0.0000000  1.2552000  3
   5308   5307   5310   5313     1  0.0000000  0.6508444  3
   5308   5307   5310   5311     1  0.0000000  0.6508444  3
   5308   5307   5310   5312     1  0.0000000  0.6508444  3
   5308   5307   5306   5317     1  0.0000000  1.2552000  3
   5309   5307   5310   5313     1  0.0000000  0.6508444  3
   5309   5307   5310   5311     1  0.0000000  0.6508444  3
   5309   5307   5310   5312     1  0.0000000  0.6508444  3
   5309   5307   5306   5317     1  0.0000000  1.2552000  3
   5310   5313   5315   5316     1  180.0000771  9.6232000  2
   5311   5310   5313   5314     1  0.0000000  3.3472000  1
   5311   5310   5313   5314     1  0.0000000  0.0000000  2
   5311   5310   5313   5314     1  180.0000771  0.3347200  3
   5311   5310   5313   5315     1  180.0000771  0.0000000  2
   5312   5310   5313   5314     1  0.0000000  3.3472000  1
   5312   5310   5313   5314     1  0.0000000  0.0000000  2
   5312   5310   5313   5314     1  180.0000771  0.3347200  3
   5312   5310   5313   5315     1  180.0000771  0.0000000  2
   5314   5313   5315   5316     1  0.0000000  7.9496000  1
   5314   5313   5315   5316     1  180.0000771  9.6232000  2
   5318   5317   5320   5323     1  0.0000000  0.6508444  3
   5318   5317   5320   5321     1  0.0000000  0.6508444  3
   5318   5317   5320   5322     1  0.0000000  0.6508444  3
   5319   5317   5320   5323     1  0.0000000  0.6508444  3
   5319   5317   5320   5321     1  0.0000000  0.6508444  3
   5319   5317   5320   5322     1  0.0000000  0.6508444  3
   5320   5323   5325   5326     1  180.0000771  9.6232000  2
   5321   5320   5323   5324     1  0.0000000  3.3472000  1
   5321   5320   5323   5324     1  0.0000000  0.0000000  2
   5321   5320   5323   5324     1  180.0000771  0.3347200  3
   5321   5320   5323   5325     1  180.0000771  0.0000000  2
   5322   5320   5323   5324     1  0.0000000  3.3472000  1
   5322   5320   5323   5324     1  0.0000000  0.0000000  2
   5322   5320   5323   5324     1  180.0000771  0.3347200  3
   5322   5320   5323   5325     1  180.0000771  0.0000000  2
   5324   5323   5325   5326     1  0.0000000  7.9496000  1
   5324   5323   5325   5326     1  180.0000771  9.6232000  2
   5328   5331   5334   5335     1  0.0000000  0.6508444  3
   5328   5331   5334   5336     1  0.0000000  0.6508444  3
   5329   5328   5331   5334     1  0.0000000  0.6508444  3
   5329   5328   5331   5332     1  0.0000000  0.6508444  3
   5329   5328   5331   5333     1  0.0000000  0.6508444  3
   5330   5328   5331   5334     1  0.0000000  0.6508444  3
   5330   5328   5331   5332     1  0.0000000  0.6508444  3
   5330   5328   5331   5333     1  0.0000000  0.6508444  3
   5332   5331   5328   5358     1  0.0000000  1.0460000  1
   5332   5331   5328   5358     1  0.0000000  0.0000000  3
   5332   5331   5334   5337     1  0.0000000  0.6508444  3
   5332   5331   5334   5335     1  0.0000000  0.6508444  3
   5332   5331   5334   5336     1  0.0000000  0.6508444  3
   5333   5331   5328   5358     1  0.0000000  1.0460000  1
   5333   5331   5328   5358     1  0.0000000  0.0000000  3
   5333   5331   5334   5337     1  0.0000000  0.6508444  3
   5333   5331   5334   5335     1  0.0000000  0.6508444  3
   5333   5331   5334   5336     1  0.0000000  0.6508444  3
   5334   5337   5338   5339     1  0.0000000  1.2552000  3
   5334   5337   5338   5340     1  0.0000000  1.2552000  3
   5334   5337   5348   5349     1  0.0000000  1.2552000  3
   5334   5337   5348   5350     1  0.0000000  1.2552000  3
   5335   5334   5337   5338     1  0.0000000  1.2552000  3
   5335   5334   5337   5348     1  0.0000000  1.2552000  3
   5336   5334   5337   5338     1  0.0000000  1.2552000  3
   5336   5334   5337   5348     1  0.0000000  1.2552000  3
   5337   5338   5341   5342     1  0.0000000  0.6508444  3
   5337   5338   5341   5343     1  0.0000000  0.6508444  3
   5337   5348   5351   5352     1  0.0000000  0.6508444  3
   5337   5348   5351   5353     1  0.0000000  0.6508444  3
   5338   5337   5348   5349     1  0.0000000  1.2552000  3
   5338   5337   5348   5350     1  0.0000000  1.2552000  3
   5339   5338   5337   5348     1  0.0000000  1.2552000  3
   5339   5338   5341   5344     1  0.0000000  0.6508444  3
   5339   5338   5341   5342     1  0.0000000  0.6508444  3
   5339   5338   5341   5343     1  0.0000000  0.6508444  3
   5340   5338   5337   5348     1  0.0000000  1.2552000  3
   5340   5338   5341   5344     1  0.0000000  0.6508444  3
   5340   5338   5341   5342     1  0.0000000  0.6508444  3
   5340   5338   5341   5343     1  0.0000000  0.6508444  3
   5341   5344   5346   5347     1  180.0000771  9.6232000  2
   5342   5341   5344   5345     1  0.0000000  3.3472000  1
   5342   5341   5344   5345     1  0.0000000  0.0000000  2
   5342   5341   5344   5345     1  180.0000771  0.3347200  3
   5342   5341   5344   5346     1  180.0000771  0.0000000  2
   5343   5341   5344   5345     1  0.0000000  3.3472000  1
   5343   5341   5344   5345     1  0.0000000  0.0000000  2
   5343   5341   5344   5345     1  180.0000771  0.3347200  3
   5343   5341   5344   5346     1  180.0000771  0.0000000  2
   5345   5344   5346   5347     1  0.0000000  7.9496000  1
   5345   5344   5346   5347     1  180.0000771  9.6232000  2
   5349   5348   5351   5354     1  0.0000000  0.6508444  3
   5349   5348   5351   5352     1  0.0000000  0.6508444  3
   5349   5348   5351   5353     1  0.0000000  0.6508444  3
   5350   5348   5351   5354     1  0.0000000  0.6508444  3
   5350   5348   5351   5352     1  0.0000000  0.6508444  3
   5350   5348   5351   5353     1  0.0000000  0.6508444  3
   5351   5354   5356   5357     1  180.0000771  9.6232000  2
   5352   5351   5354   5355     1  0.0000000  3.3472000  1
   5352   5351   5354   5355     1  0.0000000  0.0000000  2
   5352   5351   5354   5355     1  180.0000771  0.3347200  3
   5352   5351   5354   5356     1  180.0000771  0.0000000  2
   5353   5351   5354   5355     1  0.0000000  3.3472000  1
   5353   5351   5354   5355     1  0.0000000  0.0000000  2
   5353   5351   5354   5355     1  180.0000771  0.3347200  3
   5353   5351   5354   5356     1  180.0000771  0.0000000  2
   5355   5354   5356   5357     1  0.0000000  7.9496000  1
   5355   5354   5356   5357     1  180.0000771  9.6232000  2
   5359   5362   5365   5366     1  0.0000000  0.6508444  3
   5359   5362   5365   5367     1  0.0000000  0.6508444  3
   5360   5359   5362   5365     1  0.0000000  0.6508444  3
   5360   5359   5362   5363     1  0.0000000  0.6508444  3
   5360   5359   5362   5364     1  0.0000000  0.6508444  3
   5361   5359   5362   5365     1  0.0000000  0.6508444  3
   5361   5359   5362   5363     1  0.0000000  0.6508444  3
   5361   5359   5362   5364     1  0.0000000  0.6508444  3
   5363   5362   5365   5368     1  0.0000000  0.6508444  3
   5363   5362   5365   5366     1  0.0000000  0.6508444  3
   5363   5362   5365   5367     1  0.0000000  0.6508444  3
   5363   5362   5359   5389     1  0.0000000  1.0460000  1
   5363   5362   5359   5389     1  0.0000000  0.0000000  3
   5364   5362   5365   5368     1  0.0000000  0.6508444  3
   5364   5362   5365   5366     1  0.0000000  0.6508444  3
   5364   5362   5365   5367     1  0.0000000  0.6508444  3
   5364   5362   5359   5389     1  0.0000000  1.0460000  1
   5364   5362   5359   5389     1  0.0000000  0.0000000  3
   5365   5368   5369   5370     1  0.0000000  1.2552000  3
   5365   5368   5369   5371     1  0.0000000  1.2552000  3
   5365   5368   5379   5380     1  0.0000000  1.2552000  3
   5365   5368   5379   5381     1  0.0000000  1.2552000  3
   5366   5365   5368   5369     1  0.0000000  1.2552000  3
   5366   5365   5368   5379     1  0.0000000  1.2552000  3
   5367   5365   5368   5369     1  0.0000000  1.2552000  3
   5367   5365   5368   5379     1  0.0000000  1.2552000  3
   5368   5369   5372   5373     1  0.0000000  0.6508444  3
   5368   5369   5372   5374     1  0.0000000  0.6508444  3
   5368   5379   5382   5383     1  0.0000000  0.6508444  3
   5368   5379   5382   5384     1  0.0000000  0.6508444  3
   5369   5368   5379   5380     1  0.0000000  1.2552000  3
   5369   5368   5379   5381     1  0.0000000  1.2552000  3
   5370   5369   5372   5375     1  0.0000000  0.6508444  3
   5370   5369   5372   5373     1  0.0000000  0.6508444  3
   5370   5369   5372   5374     1  0.0000000  0.6508444  3
   5370   5369   5368   5379     1  0.0000000  1.2552000  3
   5371   5369   5372   5375     1  0.0000000  0.6508444  3
   5371   5369   5372   5373     1  0.0000000  0.6508444  3
   5371   5369   5372   5374     1  0.0000000  0.6508444  3
   5371   5369   5368   5379     1  0.0000000  1.2552000  3
   5372   5375   5377   5378     1  180.0000771  9.6232000  2
   5373   5372   5375   5376     1  0.0000000  3.3472000  1
   5373   5372   5375   5376     1  0.0000000  0.0000000  2
   5373   5372   5375   5376     1  180.0000771  0.3347200  3
   5373   5372   5375   5377     1  180.0000771  0.0000000  2
   5374   5372   5375   5376     1  0.0000000  3.3472000  1
   5374   5372   5375   5376     1  0.0000000  0.0000000  2
   5374   5372   5375   5376     1  180.0000771  0.3347200  3
   5374   5372   5375   5377     1  180.0000771  0.0000000  2
   5376   5375   5377   5378     1  0.0000000  7.9496000  1
   5376   5375   5377   5378     1  180.0000771  9.6232000  2
   5380   5379   5382   5385     1  0.0000000  0.6508444  3
   5380   5379   5382   5383     1  0.0000000  0.6508444  3
   5380   5379   5382   5384     1  0.0000000  0.6508444  3
   5381   5379   5382   5385     1  0.0000000  0.6508444  3
   5381   5379   5382   5383     1  0.0000000  0.6508444  3
   5381   5379   5382   5384     1  0.0000000  0.6508444  3
   5382   5385   5387   5388     1  180.0000771  9.6232000  2
   5383   5382   5385   5386     1  0.0000000  3.3472000  1
   5383   5382   5385   5386     1  0.0000000  0.0000000  2
   5383   5382   5385   5386     1  180.0000771  0.3347200  3
   5383   5382   5385   5387     1  180.0000771  0.0000000  2
   5384   5382   5385   5386     1  0.0000000  3.3472000  1
   5384   5382   5385   5386     1  0.0000000  0.0000000  2
   5384   5382   5385   5386     1  180.0000771  0.3347200  3
   5384   5382   5385   5387     1  180.0000771  0.0000000  2
   5386   5385   5387   5388     1  0.0000000  7.9496000  1
   5386   5385   5387   5388     1  180.0000771  9.6232000  2
   5390   5393   5396   5397     1  0.0000000  0.6508444  3
   5390   5393   5396   5398     1  0.0000000  0.6508444  3
   5391   5390   5393   5396     1  0.0000000  0.6508444  3
   5391   5390   5393   5394     1  0.0000000  0.6508444  3
   5391   5390   5393   5395     1  0.0000000  0.6508444  3
   5392   5390   5393   5396     1  0.0000000  0.6508444  3
   5392   5390   5393   5394     1  0.0000000  0.6508444  3
   5392   5390   5393   5395     1  0.0000000  0.6508444  3
   5394   5393   5390   5420     1  0.0000000  1.0460000  1
   5394   5393   5390   5420     1  0.0000000  0.0000000  3
   5394   5393   5396   5399     1  0.0000000  0.6508444  3
   5394   5393   5396   5397     1  0.0000000  0.6508444  3
   5394   5393   5396   5398     1  0.0000000  0.6508444  3
   5395   5393   5390   5420     1  0.0000000  1.0460000  1
   5395   5393   5390   5420     1  0.0000000  0.0000000  3
   5395   5393   5396   5399     1  0.0000000  0.6508444  3
   5395   5393   5396   5397     1  0.0000000  0.6508444  3
   5395   5393   5396   5398     1  0.0000000  0.6508444  3
   5396   5399   5400   5401     1  0.0000000  1.2552000  3
   5396   5399   5400   5402     1  0.0000000  1.2552000  3
   5396   5399   5410   5411     1  0.0000000  1.2552000  3
   5396   5399   5410   5412     1  0.0000000  1.2552000  3
   5397   5396   5399   5400     1  0.0000000  1.2552000  3
   5397   5396   5399   5410     1  0.0000000  1.2552000  3
   5398   5396   5399   5400     1  0.0000000  1.2552000  3
   5398   5396   5399   5410     1  0.0000000  1.2552000  3
   5399   5400   5403   5404     1  0.0000000  0.6508444  3
   5399   5400   5403   5405     1  0.0000000  0.6508444  3
   5399   5410   5413   5414     1  0.0000000  0.6508444  3
   5399   5410   5413   5415     1  0.0000000  0.6508444  3
   5400   5399   5410   5411     1  0.0000000  1.2552000  3
   5400   5399   5410   5412     1  0.0000000  1.2552000  3
   5401   5400   5399   5410     1  0.0000000  1.2552000  3
   5401   5400   5403   5406     1  0.0000000  0.6508444  3
   5401   5400   5403   5404     1  0.0000000  0.6508444  3
   5401   5400   5403   5405     1  0.0000000  0.6508444  3
   5402   5400   5399   5410     1  0.0000000  1.2552000  3
   5402   5400   5403   5406     1  0.0000000  0.6508444  3
   5402   5400   5403   5404     1  0.0000000  0.6508444  3
   5402   5400   5403   5405     1  0.0000000  0.6508444  3
   5403   5406   5408   5409     1  180.0000771  9.6232000  2
   5404   5403   5406   5407     1  0.0000000  3.3472000  1
   5404   5403   5406   5407     1  0.0000000  0.0000000  2
   5404   5403   5406   5407     1  180.0000771  0.3347200  3
   5404   5403   5406   5408     1  180.0000771  0.0000000  2
   5405   5403   5406   5407     1  0.0000000  3.3472000  1
   5405   5403   5406   5407     1  0.0000000  0.0000000  2
   5405   5403   5406   5407     1  180.0000771  0.3347200  3
   5405   5403   5406   5408     1  180.0000771  0.0000000  2
   5407   5406   5408   5409     1  0.0000000  7.9496000  1
   5407   5406   5408   5409     1  180.0000771  9.6232000  2
   5411   5410   5413   5416     1  0.0000000  0.6508444  3
   5411   5410   5413   5414     1  0.0000000  0.6508444  3
   5411   5410   5413   5415     1  0.0000000  0.6508444  3
   5412   5410   5413   5416     1  0.0000000  0.6508444  3
   5412   5410   5413   5414     1  0.0000000  0.6508444  3
   5412   5410   5413   5415     1  0.0000000  0.6508444  3
   5413   5416   5418   5419     1  180.0000771  9.6232000  2
   5414   5413   5416   5417     1  0.0000000  3.3472000  1
   5414   5413   5416   5417     1  0.0000000  0.0000000  2
   5414   5413   5416   5417     1  180.0000771  0.3347200  3
   5414   5413   5416   5418     1  180.0000771  0.0000000  2
   5415   5413   5416   5417     1  0.0000000  3.3472000  1
   5415   5413   5416   5417     1  0.0000000  0.0000000  2
   5415   5413   5416   5417     1  180.0000771  0.3347200  3
   5415   5413   5416   5418     1  180.0000771  0.0000000  2
   5417   5416   5418   5419     1  0.0000000  7.9496000  1
   5417   5416   5418   5419     1  180.0000771  9.6232000  2
   5421   5424   5427   5428     1  0.0000000  0.6508444  3
   5421   5424   5427   5429     1  0.0000000  0.6508444  3
   5422   5421   5424   5427     1  0.0000000  0.6508444  3
   5422   5421   5424   5425     1  0.0000000  0.6508444  3
   5422   5421   5424   5426     1  0.0000000  0.6508444  3
   5423   5421   5424   5427     1  0.0000000  0.6508444  3
   5423   5421   5424   5425     1  0.0000000  0.6508444  3
   5423   5421   5424   5426     1  0.0000000  0.6508444  3
   5425   5424   5427   5430     1  0.0000000  0.6508444  3
   5425   5424   5427   5428     1  0.0000000  0.6508444  3
   5425   5424   5427   5429     1  0.0000000  0.6508444  3
   5425   5424   5421   5451     1  0.0000000  1.0460000  1
   5425   5424   5421   5451     1  0.0000000  0.0000000  3
   5426   5424   5427   5430     1  0.0000000  0.6508444  3
   5426   5424   5427   5428     1  0.0000000  0.6508444  3
   5426   5424   5427   5429     1  0.0000000  0.6508444  3
   5426   5424   5421   5451     1  0.0000000  1.0460000  1
   5426   5424   5421   5451     1  0.0000000  0.0000000  3
   5427   5430   5431   5432     1  0.0000000  1.2552000  3
   5427   5430   5431   5433     1  0.0000000  1.2552000  3
   5427   5430   5441   5442     1  0.0000000  1.2552000  3
   5427   5430   5441   5443     1  0.0000000  1.2552000  3
   5428   5427   5430   5431     1  0.0000000  1.2552000  3
   5428   5427   5430   5441     1  0.0000000  1.2552000  3
   5429   5427   5430   5431     1  0.0000000  1.2552000  3
   5429   5427   5430   5441     1  0.0000000  1.2552000  3
   5430   5431   5434   5435     1  0.0000000  0.6508444  3
   5430   5431   5434   5436     1  0.0000000  0.6508444  3
   5430   5441   5444   5445     1  0.0000000  0.6508444  3
   5430   5441   5444   5446     1  0.0000000  0.6508444  3
   5431   5430   5441   5442     1  0.0000000  1.2552000  3
   5431   5430   5441   5443     1  0.0000000  1.2552000  3
   5432   5431   5434   5437     1  0.0000000  0.6508444  3
   5432   5431   5434   5435     1  0.0000000  0.6508444  3
   5432   5431   5434   5436     1  0.0000000  0.6508444  3
   5432   5431   5430   5441     1  0.0000000  1.2552000  3
   5433   5431   5434   5437     1  0.0000000  0.6508444  3
   5433   5431   5434   5435     1  0.0000000  0.6508444  3
   5433   5431   5434   5436     1  0.0000000  0.6508444  3
   5433   5431   5430   5441     1  0.0000000  1.2552000  3
   5434   5437   5439   5440     1  180.0000771  9.6232000  2
   5435   5434   5437   5438     1  0.0000000  3.3472000  1
   5435   5434   5437   5438     1  0.0000000  0.0000000  2
   5435   5434   5437   5438     1  180.0000771  0.3347200  3
   5435   5434   5437   5439     1  180.0000771  0.0000000  2
   5436   5434   5437   5438     1  0.0000000  3.3472000  1
   5436   5434   5437   5438     1  0.0000000  0.0000000  2
   5436   5434   5437   5438     1  180.0000771  0.3347200  3
   5436   5434   5437   5439     1  180.0000771  0.0000000  2
   5438   5437   5439   5440     1  0.0000000  7.9496000  1
   5438   5437   5439   5440     1  180.0000771  9.6232000  2
   5442   5441   5444   5447     1  0.0000000  0.6508444  3
   5442   5441   5444   5445     1  0.0000000  0.6508444  3
   5442   5441   5444   5446     1  0.0000000  0.6508444  3
   5443   5441   5444   5447     1  0.0000000  0.6508444  3
   5443   5441   5444   5445     1  0.0000000  0.6508444  3
   5443   5441   5444   5446     1  0.0000000  0.6508444  3
   5444   5447   5449   5450     1  180.0000771  9.6232000  2
   5445   5444   5447   5448     1  0.0000000  3.3472000  1
   5445   5444   5447   5448     1  0.0000000  0.0000000  2
   5445   5444   5447   5448     1  180.0000771  0.3347200  3
   5445   5444   5447   5449     1  180.0000771  0.0000000  2
   5446   5444   5447   5448     1  0.0000000  3.3472000  1
   5446   5444   5447   5448     1  0.0000000  0.0000000  2
   5446   5444   5447   5448     1  180.0000771  0.3347200  3
   5446   5444   5447   5449     1  180.0000771  0.0000000  2
   5448   5447   5449   5450     1  0.0000000  7.9496000  1
   5448   5447   5449   5450     1  180.0000771  9.6232000  2
   5452   5455   5458   5459     1  0.0000000  0.6508444  3
   5452   5455   5458   5460     1  0.0000000  0.6508444  3
   5453   5452   5455   5458     1  0.0000000  0.6508444  3
   5453   5452   5455   5456     1  0.0000000  0.6508444  3
   5453   5452   5455   5457     1  0.0000000  0.6508444  3
   5454   5452   5455   5458     1  0.0000000  0.6508444  3
   5454   5452   5455   5456     1  0.0000000  0.6508444  3
   5454   5452   5455   5457     1  0.0000000  0.6508444  3
   5456   5455   5452   5482     1  0.0000000  1.0460000  1
   5456   5455   5452   5482     1  0.0000000  0.0000000  3
   5456   5455   5458   5461     1  0.0000000  0.6508444  3
   5456   5455   5458   5459     1  0.0000000  0.6508444  3
   5456   5455   5458   5460     1  0.0000000  0.6508444  3
   5457   5455   5452   5482     1  0.0000000  1.0460000  1
   5457   5455   5452   5482     1  0.0000000  0.0000000  3
   5457   5455   5458   5461     1  0.0000000  0.6508444  3
   5457   5455   5458   5459     1  0.0000000  0.6508444  3
   5457   5455   5458   5460     1  0.0000000  0.6508444  3
   5458   5461   5462   5463     1  0.0000000  1.2552000  3
   5458   5461   5462   5464     1  0.0000000  1.2552000  3
   5458   5461   5472   5473     1  0.0000000  1.2552000  3
   5458   5461   5472   5474     1  0.0000000  1.2552000  3
   5459   5458   5461   5462     1  0.0000000  1.2552000  3
   5459   5458   5461   5472     1  0.0000000  1.2552000  3
   5460   5458   5461   5462     1  0.0000000  1.2552000  3
   5460   5458   5461   5472     1  0.0000000  1.2552000  3
   5461   5462   5465   5466     1  0.0000000  0.6508444  3
   5461   5462   5465   5467     1  0.0000000  0.6508444  3
   5461   5472   5475   5476     1  0.0000000  0.6508444  3
   5461   5472   5475   5477     1  0.0000000  0.6508444  3
   5462   5461   5472   5473     1  0.0000000  1.2552000  3
   5462   5461   5472   5474     1  0.0000000  1.2552000  3
   5463   5462   5461   5472     1  0.0000000  1.2552000  3
   5463   5462   5465   5468     1  0.0000000  0.6508444  3
   5463   5462   5465   5466     1  0.0000000  0.6508444  3
   5463   5462   5465   5467     1  0.0000000  0.6508444  3
   5464   5462   5461   5472     1  0.0000000  1.2552000  3
   5464   5462   5465   5468     1  0.0000000  0.6508444  3
   5464   5462   5465   5466     1  0.0000000  0.6508444  3
   5464   5462   5465   5467     1  0.0000000  0.6508444  3
   5465   5468   5470   5471     1  180.0000771  9.6232000  2
   5466   5465   5468   5469     1  0.0000000  3.3472000  1
   5466   5465   5468   5469     1  0.0000000  0.0000000  2
   5466   5465   5468   5469     1  180.0000771  0.3347200  3
   5466   5465   5468   5470     1  180.0000771  0.0000000  2
   5467   5465   5468   5469     1  0.0000000  3.3472000  1
   5467   5465   5468   5469     1  0.0000000  0.0000000  2
   5467   5465   5468   5469     1  180.0000771  0.3347200  3
   5467   5465   5468   5470     1  180.0000771  0.0000000  2
   5469   5468   5470   5471     1  0.0000000  7.9496000  1
   5469   5468   5470   5471     1  180.0000771  9.6232000  2
   5473   5472   5475   5478     1  0.0000000  0.6508444  3
   5473   5472   5475   5476     1  0.0000000  0.6508444  3
   5473   5472   5475   5477     1  0.0000000  0.6508444  3
   5474   5472   5475   5478     1  0.0000000  0.6508444  3
   5474   5472   5475   5476     1  0.0000000  0.6508444  3
   5474   5472   5475   5477     1  0.0000000  0.6508444  3
   5475   5478   5480   5481     1  180.0000771  9.6232000  2
   5476   5475   5478   5479     1  0.0000000  3.3472000  1
   5476   5475   5478   5479     1  0.0000000  0.0000000  2
   5476   5475   5478   5479     1  180.0000771  0.3347200  3
   5476   5475   5478   5480     1  180.0000771  0.0000000  2
   5477   5475   5478   5479     1  0.0000000  3.3472000  1
   5477   5475   5478   5479     1  0.0000000  0.0000000  2
   5477   5475   5478   5479     1  180.0000771  0.3347200  3
   5477   5475   5478   5480     1  180.0000771  0.0000000  2
   5479   5478   5480   5481     1  0.0000000  7.9496000  1
   5479   5478   5480   5481     1  180.0000771  9.6232000  2
   5483   5486   5489   5490     1  0.0000000  0.6508444  3
   5483   5486   5489   5491     1  0.0000000  0.6508444  3
   5484   5483   5486   5489     1  0.0000000  0.6508444  3
   5484   5483   5486   5487     1  0.0000000  0.6508444  3
   5484   5483   5486   5488     1  0.0000000  0.6508444  3
   5485   5483   5486   5489     1  0.0000000  0.6508444  3
   5485   5483   5486   5487     1  0.0000000  0.6508444  3
   5485   5483   5486   5488     1  0.0000000  0.6508444  3
   5487   5486   5489   5492     1  0.0000000  0.6508444  3
   5487   5486   5489   5490     1  0.0000000  0.6508444  3
   5487   5486   5489   5491     1  0.0000000  0.6508444  3
   5487   5486   5483   5513     1  0.0000000  1.0460000  1
   5487   5486   5483   5513     1  0.0000000  0.0000000  3
   5488   5486   5489   5492     1  0.0000000  0.6508444  3
   5488   5486   5489   5490     1  0.0000000  0.6508444  3
   5488   5486   5489   5491     1  0.0000000  0.6508444  3
   5488   5486   5483   5513     1  0.0000000  1.0460000  1
   5488   5486   5483   5513     1  0.0000000  0.0000000  3
   5489   5492   5493   5494     1  0.0000000  1.2552000  3
   5489   5492   5493   5495     1  0.0000000  1.2552000  3
   5489   5492   5503   5504     1  0.0000000  1.2552000  3
   5489   5492   5503   5505     1  0.0000000  1.2552000  3
   5490   5489   5492   5493     1  0.0000000  1.2552000  3
   5490   5489   5492   5503     1  0.0000000  1.2552000  3
   5491   5489   5492   5493     1  0.0000000  1.2552000  3
   5491   5489   5492   5503     1  0.0000000  1.2552000  3
   5492   5493   5496   5497     1  0.0000000  0.6508444  3
   5492   5493   5496   5498     1  0.0000000  0.6508444  3
   5492   5503   5506   5507     1  0.0000000  0.6508444  3
   5492   5503   5506   5508     1  0.0000000  0.6508444  3
   5493   5492   5503   5504     1  0.0000000  1.2552000  3
   5493   5492   5503   5505     1  0.0000000  1.2552000  3
   5494   5493   5496   5499     1  0.0000000  0.6508444  3
   5494   5493   5496   5497     1  0.0000000  0.6508444  3
   5494   5493   5496   5498     1  0.0000000  0.6508444  3
   5494   5493   5492   5503     1  0.0000000  1.2552000  3
   5495   5493   5496   5499     1  0.0000000  0.6508444  3
   5495   5493   5496   5497     1  0.0000000  0.6508444  3
   5495   5493   5496   5498     1  0.0000000  0.6508444  3
   5495   5493   5492   5503     1  0.0000000  1.2552000  3
   5496   5499   5501   5502     1  180.0000771  9.6232000  2
   5497   5496   5499   5500     1  0.0000000  3.3472000  1
   5497   5496   5499   5500     1  0.0000000  0.0000000  2
   5497   5496   5499   5500     1  180.0000771  0.3347200  3
   5497   5496   5499   5501     1  180.0000771  0.0000000  2
   5498   5496   5499   5500     1  0.0000000  3.3472000  1
   5498   5496   5499   5500     1  0.0000000  0.0000000  2
   5498   5496   5499   5500     1  180.0000771  0.3347200  3
   5498   5496   5499   5501     1  180.0000771  0.0000000  2
   5500   5499   5501   5502     1  0.0000000  7.9496000  1
   5500   5499   5501   5502     1  180.0000771  9.6232000  2
   5504   5503   5506   5509     1  0.0000000  0.6508444  3
   5504   5503   5506   5507     1  0.0000000  0.6508444  3
   5504   5503   5506   5508     1  0.0000000  0.6508444  3
   5505   5503   5506   5509     1  0.0000000  0.6508444  3
   5505   5503   5506   5507     1  0.0000000  0.6508444  3
   5505   5503   5506   5508     1  0.0000000  0.6508444  3
   5506   5509   5511   5512     1  180.0000771  9.6232000  2
   5507   5506   5509   5510     1  0.0000000  3.3472000  1
   5507   5506   5509   5510     1  0.0000000  0.0000000  2
   5507   5506   5509   5510     1  180.0000771  0.3347200  3
   5507   5506   5509   5511     1  180.0000771  0.0000000  2
   5508   5506   5509   5510     1  0.0000000  3.3472000  1
   5508   5506   5509   5510     1  0.0000000  0.0000000  2
   5508   5506   5509   5510     1  180.0000771  0.3347200  3
   5508   5506   5509   5511     1  180.0000771  0.0000000  2
   5510   5509   5511   5512     1  0.0000000  7.9496000  1
   5510   5509   5511   5512     1  180.0000771  9.6232000  2
   5514   5517   5520   5521     1  0.0000000  0.6508444  3
   5514   5517   5520   5522     1  0.0000000  0.6508444  3
   5515   5514   5517   5520     1  0.0000000  0.6508444  3
   5515   5514   5517   5518     1  0.0000000  0.6508444  3
   5515   5514   5517   5519     1  0.0000000  0.6508444  3
   5516   5514   5517   5520     1  0.0000000  0.6508444  3
   5516   5514   5517   5518     1  0.0000000  0.6508444  3
   5516   5514   5517   5519     1  0.0000000  0.6508444  3
   5518   5517   5514   5544     1  0.0000000  1.0460000  1
   5518   5517   5514   5544     1  0.0000000  0.0000000  3
   5518   5517   5520   5523     1  0.0000000  0.6508444  3
   5518   5517   5520   5521     1  0.0000000  0.6508444  3
   5518   5517   5520   5522     1  0.0000000  0.6508444  3
   5519   5517   5514   5544     1  0.0000000  1.0460000  1
   5519   5517   5514   5544     1  0.0000000  0.0000000  3
   5519   5517   5520   5523     1  0.0000000  0.6508444  3
   5519   5517   5520   5521     1  0.0000000  0.6508444  3
   5519   5517   5520   5522     1  0.0000000  0.6508444  3
   5520   5523   5524   5525     1  0.0000000  1.2552000  3
   5520   5523   5524   5526     1  0.0000000  1.2552000  3
   5520   5523   5534   5535     1  0.0000000  1.2552000  3
   5520   5523   5534   5536     1  0.0000000  1.2552000  3
   5521   5520   5523   5524     1  0.0000000  1.2552000  3
   5521   5520   5523   5534     1  0.0000000  1.2552000  3
   5522   5520   5523   5524     1  0.0000000  1.2552000  3
   5522   5520   5523   5534     1  0.0000000  1.2552000  3
   5523   5524   5527   5528     1  0.0000000  0.6508444  3
   5523   5524   5527   5529     1  0.0000000  0.6508444  3
   5523   5534   5537   5538     1  0.0000000  0.6508444  3
   5523   5534   5537   5539     1  0.0000000  0.6508444  3
   5524   5523   5534   5535     1  0.0000000  1.2552000  3
   5524   5523   5534   5536     1  0.0000000  1.2552000  3
   5525   5524   5523   5534     1  0.0000000  1.2552000  3
   5525   5524   5527   5530     1  0.0000000  0.6508444  3
   5525   5524   5527   5528     1  0.0000000  0.6508444  3
   5525   5524   5527   5529     1  0.0000000  0.6508444  3
   5526   5524   5523   5534     1  0.0000000  1.2552000  3
   5526   5524   5527   5530     1  0.0000000  0.6508444  3
   5526   5524   5527   5528     1  0.0000000  0.6508444  3
   5526   5524   5527   5529     1  0.0000000  0.6508444  3
   5527   5530   5532   5533     1  180.0000771  9.6232000  2
   5528   5527   5530   5531     1  0.0000000  3.3472000  1
   5528   5527   5530   5531     1  0.0000000  0.0000000  2
   5528   5527   5530   5531     1  180.0000771  0.3347200  3
   5528   5527   5530   5532     1  180.0000771  0.0000000  2
   5529   5527   5530   5531     1  0.0000000  3.3472000  1
   5529   5527   5530   5531     1  0.0000000  0.0000000  2
   5529   5527   5530   5531     1  180.0000771  0.3347200  3
   5529   5527   5530   5532     1  180.0000771  0.0000000  2
   5531   5530   5532   5533     1  0.0000000  7.9496000  1
   5531   5530   5532   5533     1  180.0000771  9.6232000  2
   5535   5534   5537   5540     1  0.0000000  0.6508444  3
   5535   5534   5537   5538     1  0.0000000  0.6508444  3
   5535   5534   5537   5539     1  0.0000000  0.6508444  3
   5536   5534   5537   5540     1  0.0000000  0.6508444  3
   5536   5534   5537   5538     1  0.0000000  0.6508444  3
   5536   5534   5537   5539     1  0.0000000  0.6508444  3
   5537   5540   5542   5543     1  180.0000771  9.6232000  2
   5538   5537   5540   5541     1  0.0000000  3.3472000  1
   5538   5537   5540   5541     1  0.0000000  0.0000000  2
   5538   5537   5540   5541     1  180.0000771  0.3347200  3
   5538   5537   5540   5542     1  180.0000771  0.0000000  2
   5539   5537   5540   5541     1  0.0000000  3.3472000  1
   5539   5537   5540   5541     1  0.0000000  0.0000000  2
   5539   5537   5540   5541     1  180.0000771  0.3347200  3
   5539   5537   5540   5542     1  180.0000771  0.0000000  2
   5541   5540   5542   5543     1  0.0000000  7.9496000  1
   5541   5540   5542   5543     1  180.0000771  9.6232000  2
   5545   5548   5551   5552     1  0.0000000  0.6508444  3
   5545   5548   5551   5553     1  0.0000000  0.6508444  3
   5546   5545   5548   5551     1  0.0000000  0.6508444  3
   5546   5545   5548   5549     1  0.0000000  0.6508444  3
   5546   5545   5548   5550     1  0.0000000  0.6508444  3
   5547   5545   5548   5551     1  0.0000000  0.6508444  3
   5547   5545   5548   5549     1  0.0000000  0.6508444  3
   5547   5545   5548   5550     1  0.0000000  0.6508444  3
   5549   5548   5551   5554     1  0.0000000  0.6508444  3
   5549   5548   5551   5552     1  0.0000000  0.6508444  3
   5549   5548   5551   5553     1  0.0000000  0.6508444  3
   5549   5548   5545   5575     1  0.0000000  1.0460000  1
   5549   5548   5545   5575     1  0.0000000  0.0000000  3
   5550   5548   5551   5554     1  0.0000000  0.6508444  3
   5550   5548   5551   5552     1  0.0000000  0.6508444  3
   5550   5548   5551   5553     1  0.0000000  0.6508444  3
   5550   5548   5545   5575     1  0.0000000  1.0460000  1
   5550   5548   5545   5575     1  0.0000000  0.0000000  3
   5551   5554   5555   5556     1  0.0000000  1.2552000  3
   5551   5554   5555   5557     1  0.0000000  1.2552000  3
   5551   5554   5565   5566     1  0.0000000  1.2552000  3
   5551   5554   5565   5567     1  0.0000000  1.2552000  3
   5552   5551   5554   5555     1  0.0000000  1.2552000  3
   5552   5551   5554   5565     1  0.0000000  1.2552000  3
   5553   5551   5554   5555     1  0.0000000  1.2552000  3
   5553   5551   5554   5565     1  0.0000000  1.2552000  3
   5554   5555   5558   5559     1  0.0000000  0.6508444  3
   5554   5555   5558   5560     1  0.0000000  0.6508444  3
   5554   5565   5568   5569     1  0.0000000  0.6508444  3
   5554   5565   5568   5570     1  0.0000000  0.6508444  3
   5555   5554   5565   5566     1  0.0000000  1.2552000  3
   5555   5554   5565   5567     1  0.0000000  1.2552000  3
   5556   5555   5558   5561     1  0.0000000  0.6508444  3
   5556   5555   5558   5559     1  0.0000000  0.6508444  3
   5556   5555   5558   5560     1  0.0000000  0.6508444  3
   5556   5555   5554   5565     1  0.0000000  1.2552000  3
   5557   5555   5558   5561     1  0.0000000  0.6508444  3
   5557   5555   5558   5559     1  0.0000000  0.6508444  3
   5557   5555   5558   5560     1  0.0000000  0.6508444  3
   5557   5555   5554   5565     1  0.0000000  1.2552000  3
   5558   5561   5563   5564     1  180.0000771  9.6232000  2
   5559   5558   5561   5562     1  0.0000000  3.3472000  1
   5559   5558   5561   5562     1  0.0000000  0.0000000  2
   5559   5558   5561   5562     1  180.0000771  0.3347200  3
   5559   5558   5561   5563     1  180.0000771  0.0000000  2
   5560   5558   5561   5562     1  0.0000000  3.3472000  1
   5560   5558   5561   5562     1  0.0000000  0.0000000  2
   5560   5558   5561   5562     1  180.0000771  0.3347200  3
   5560   5558   5561   5563     1  180.0000771  0.0000000  2
   5562   5561   5563   5564     1  0.0000000  7.9496000  1
   5562   5561   5563   5564     1  180.0000771  9.6232000  2
   5566   5565   5568   5571     1  0.0000000  0.6508444  3
   5566   5565   5568   5569     1  0.0000000  0.6508444  3
   5566   5565   5568   5570     1  0.0000000  0.6508444  3
   5567   5565   5568   5571     1  0.0000000  0.6508444  3
   5567   5565   5568   5569     1  0.0000000  0.6508444  3
   5567   5565   5568   5570     1  0.0000000  0.6508444  3
   5568   5571   5573   5574     1  180.0000771  9.6232000  2
   5569   5568   5571   5572     1  0.0000000  3.3472000  1
   5569   5568   5571   5572     1  0.0000000  0.0000000  2
   5569   5568   5571   5572     1  180.0000771  0.3347200  3
   5569   5568   5571   5573     1  180.0000771  0.0000000  2
   5570   5568   5571   5572     1  0.0000000  3.3472000  1
   5570   5568   5571   5572     1  0.0000000  0.0000000  2
   5570   5568   5571   5572     1  180.0000771  0.3347200  3
   5570   5568   5571   5573     1  180.0000771  0.0000000  2
   5572   5571   5573   5574     1  0.0000000  7.9496000  1
   5572   5571   5573   5574     1  180.0000771  9.6232000  2
   5576   5579   5582   5583     1  0.0000000  0.6508444  3
   5576   5579   5582   5584     1  0.0000000  0.6508444  3
   5577   5576   5579   5582     1  0.0000000  0.6508444  3
   5577   5576   5579   5580     1  0.0000000  0.6508444  3
   5577   5576   5579   5581     1  0.0000000  0.6508444  3
   5578   5576   5579   5582     1  0.0000000  0.6508444  3
   5578   5576   5579   5580     1  0.0000000  0.6508444  3
   5578   5576   5579   5581     1  0.0000000  0.6508444  3
   5580   5579   5576   5606     1  0.0000000  1.0460000  1
   5580   5579   5576   5606     1  0.0000000  0.0000000  3
   5580   5579   5582   5585     1  0.0000000  0.6508444  3
   5580   5579   5582   5583     1  0.0000000  0.6508444  3
   5580   5579   5582   5584     1  0.0000000  0.6508444  3
   5581   5579   5576   5606     1  0.0000000  1.0460000  1
   5581   5579   5576   5606     1  0.0000000  0.0000000  3
   5581   5579   5582   5585     1  0.0000000  0.6508444  3
   5581   5579   5582   5583     1  0.0000000  0.6508444  3
   5581   5579   5582   5584     1  0.0000000  0.6508444  3
   5582   5585   5586   5587     1  0.0000000  1.2552000  3
   5582   5585   5586   5588     1  0.0000000  1.2552000  3
   5582   5585   5596   5597     1  0.0000000  1.2552000  3
   5582   5585   5596   5598     1  0.0000000  1.2552000  3
   5583   5582   5585   5586     1  0.0000000  1.2552000  3
   5583   5582   5585   5596     1  0.0000000  1.2552000  3
   5584   5582   5585   5586     1  0.0000000  1.2552000  3
   5584   5582   5585   5596     1  0.0000000  1.2552000  3
   5585   5586   5589   5590     1  0.0000000  0.6508444  3
   5585   5586   5589   5591     1  0.0000000  0.6508444  3
   5585   5596   5599   5600     1  0.0000000  0.6508444  3
   5585   5596   5599   5601     1  0.0000000  0.6508444  3
   5586   5585   5596   5597     1  0.0000000  1.2552000  3
   5586   5585   5596   5598     1  0.0000000  1.2552000  3
   5587   5586   5585   5596     1  0.0000000  1.2552000  3
   5587   5586   5589   5592     1  0.0000000  0.6508444  3
   5587   5586   5589   5590     1  0.0000000  0.6508444  3
   5587   5586   5589   5591     1  0.0000000  0.6508444  3
   5588   5586   5585   5596     1  0.0000000  1.2552000  3
   5588   5586   5589   5592     1  0.0000000  0.6508444  3
   5588   5586   5589   5590     1  0.0000000  0.6508444  3
   5588   5586   5589   5591     1  0.0000000  0.6508444  3
   5589   5592   5594   5595     1  180.0000771  9.6232000  2
   5590   5589   5592   5593     1  0.0000000  3.3472000  1
   5590   5589   5592   5593     1  0.0000000  0.0000000  2
   5590   5589   5592   5593     1  180.0000771  0.3347200  3
   5590   5589   5592   5594     1  180.0000771  0.0000000  2
   5591   5589   5592   5593     1  0.0000000  3.3472000  1
   5591   5589   5592   5593     1  0.0000000  0.0000000  2
   5591   5589   5592   5593     1  180.0000771  0.3347200  3
   5591   5589   5592   5594     1  180.0000771  0.0000000  2
   5593   5592   5594   5595     1  0.0000000  7.9496000  1
   5593   5592   5594   5595     1  180.0000771  9.6232000  2
   5597   5596   5599   5602     1  0.0000000  0.6508444  3
   5597   5596   5599   5600     1  0.0000000  0.6508444  3
   5597   5596   5599   5601     1  0.0000000  0.6508444  3
   5598   5596   5599   5602     1  0.0000000  0.6508444  3
   5598   5596   5599   5600     1  0.0000000  0.6508444  3
   5598   5596   5599   5601     1  0.0000000  0.6508444  3
   5599   5602   5604   5605     1  180.0000771  9.6232000  2
   5600   5599   5602   5603     1  0.0000000  3.3472000  1
   5600   5599   5602   5603     1  0.0000000  0.0000000  2
   5600   5599   5602   5603     1  180.0000771  0.3347200  3
   5600   5599   5602   5604     1  180.0000771  0.0000000  2
   5601   5599   5602   5603     1  0.0000000  3.3472000  1
   5601   5599   5602   5603     1  0.0000000  0.0000000  2
   5601   5599   5602   5603     1  180.0000771  0.3347200  3
   5601   5599   5602   5604     1  180.0000771  0.0000000  2
   5603   5602   5604   5605     1  0.0000000  7.9496000  1
   5603   5602   5604   5605     1  180.0000771  9.6232000  2
   5607   5610   5613   5614     1  0.0000000  0.6508444  3
   5607   5610   5613   5615     1  0.0000000  0.6508444  3
   5608   5607   5610   5613     1  0.0000000  0.6508444  3
   5608   5607   5610   5611     1  0.0000000  0.6508444  3
   5608   5607   5610   5612     1  0.0000000  0.6508444  3
   5609   5607   5610   5613     1  0.0000000  0.6508444  3
   5609   5607   5610   5611     1  0.0000000  0.6508444  3
   5609   5607   5610   5612     1  0.0000000  0.6508444  3
   5611   5610   5613   5616     1  0.0000000  0.6508444  3
   5611   5610   5613   5614     1  0.0000000  0.6508444  3
   5611   5610   5613   5615     1  0.0000000  0.6508444  3
   5611   5610   5607   5637     1  0.0000000  1.0460000  1
   5611   5610   5607   5637     1  0.0000000  0.0000000  3
   5612   5610   5613   5616     1  0.0000000  0.6508444  3
   5612   5610   5613   5614     1  0.0000000  0.6508444  3
   5612   5610   5613   5615     1  0.0000000  0.6508444  3
   5612   5610   5607   5637     1  0.0000000  1.0460000  1
   5612   5610   5607   5637     1  0.0000000  0.0000000  3
   5613   5616   5617   5618     1  0.0000000  1.2552000  3
   5613   5616   5617   5619     1  0.0000000  1.2552000  3
   5613   5616   5627   5628     1  0.0000000  1.2552000  3
   5613   5616   5627   5629     1  0.0000000  1.2552000  3
   5614   5613   5616   5617     1  0.0000000  1.2552000  3
   5614   5613   5616   5627     1  0.0000000  1.2552000  3
   5615   5613   5616   5617     1  0.0000000  1.2552000  3
   5615   5613   5616   5627     1  0.0000000  1.2552000  3
   5616   5617   5620   5621     1  0.0000000  0.6508444  3
   5616   5617   5620   5622     1  0.0000000  0.6508444  3
   5616   5627   5630   5631     1  0.0000000  0.6508444  3
   5616   5627   5630   5632     1  0.0000000  0.6508444  3
   5617   5616   5627   5628     1  0.0000000  1.2552000  3
   5617   5616   5627   5629     1  0.0000000  1.2552000  3
   5618   5617   5620   5623     1  0.0000000  0.6508444  3
   5618   5617   5620   5621     1  0.0000000  0.6508444  3
   5618   5617   5620   5622     1  0.0000000  0.6508444  3
   5618   5617   5616   5627     1  0.0000000  1.2552000  3
   5619   5617   5620   5623     1  0.0000000  0.6508444  3
   5619   5617   5620   5621     1  0.0000000  0.6508444  3
   5619   5617   5620   5622     1  0.0000000  0.6508444  3
   5619   5617   5616   5627     1  0.0000000  1.2552000  3
   5620   5623   5625   5626     1  180.0000771  9.6232000  2
   5621   5620   5623   5624     1  0.0000000  3.3472000  1
   5621   5620   5623   5624     1  0.0000000  0.0000000  2
   5621   5620   5623   5624     1  180.0000771  0.3347200  3
   5621   5620   5623   5625     1  180.0000771  0.0000000  2
   5622   5620   5623   5624     1  0.0000000  3.3472000  1
   5622   5620   5623   5624     1  0.0000000  0.0000000  2
   5622   5620   5623   5624     1  180.0000771  0.3347200  3
   5622   5620   5623   5625     1  180.0000771  0.0000000  2
   5624   5623   5625   5626     1  0.0000000  7.9496000  1
   5624   5623   5625   5626     1  180.0000771  9.6232000  2
   5628   5627   5630   5633     1  0.0000000  0.6508444  3
   5628   5627   5630   5631     1  0.0000000  0.6508444  3
   5628   5627   5630   5632     1  0.0000000  0.6508444  3
   5629   5627   5630   5633     1  0.0000000  0.6508444  3
   5629   5627   5630   5631     1  0.0000000  0.6508444  3
   5629   5627   5630   5632     1  0.0000000  0.6508444  3
   5630   5633   5635   5636     1  180.0000771  9.6232000  2
   5631   5630   5633   5634     1  0.0000000  3.3472000  1
   5631   5630   5633   5634     1  0.0000000  0.0000000  2
   5631   5630   5633   5634     1  180.0000771  0.3347200  3
   5631   5630   5633   5635     1  180.0000771  0.0000000  2
   5632   5630   5633   5634     1  0.0000000  3.3472000  1
   5632   5630   5633   5634     1  0.0000000  0.0000000  2
   5632   5630   5633   5634     1  180.0000771  0.3347200  3
   5632   5630   5633   5635     1  180.0000771  0.0000000  2
   5634   5633   5635   5636     1  0.0000000  7.9496000  1
   5634   5633   5635   5636     1  180.0000771  9.6232000  2
   5638   5641   5644   5645     1  0.0000000  0.6508444  3
   5638   5641   5644   5646     1  0.0000000  0.6508444  3
   5639   5638   5641   5644     1  0.0000000  0.6508444  3
   5639   5638   5641   5642     1  0.0000000  0.6508444  3
   5639   5638   5641   5643     1  0.0000000  0.6508444  3
   5640   5638   5641   5644     1  0.0000000  0.6508444  3
   5640   5638   5641   5642     1  0.0000000  0.6508444  3
   5640   5638   5641   5643     1  0.0000000  0.6508444  3
   5642   5641   5638   5668     1  0.0000000  1.0460000  1
   5642   5641   5638   5668     1  0.0000000  0.0000000  3
   5642   5641   5644   5647     1  0.0000000  0.6508444  3
   5642   5641   5644   5645     1  0.0000000  0.6508444  3
   5642   5641   5644   5646     1  0.0000000  0.6508444  3
   5643   5641   5638   5668     1  0.0000000  1.0460000  1
   5643   5641   5638   5668     1  0.0000000  0.0000000  3
   5643   5641   5644   5647     1  0.0000000  0.6508444  3
   5643   5641   5644   5645     1  0.0000000  0.6508444  3
   5643   5641   5644   5646     1  0.0000000  0.6508444  3
   5644   5647   5648   5649     1  0.0000000  1.2552000  3
   5644   5647   5648   5650     1  0.0000000  1.2552000  3
   5644   5647   5658   5659     1  0.0000000  1.2552000  3
   5644   5647   5658   5660     1  0.0000000  1.2552000  3
   5645   5644   5647   5648     1  0.0000000  1.2552000  3
   5645   5644   5647   5658     1  0.0000000  1.2552000  3
   5646   5644   5647   5648     1  0.0000000  1.2552000  3
   5646   5644   5647   5658     1  0.0000000  1.2552000  3
   5647   5648   5651   5652     1  0.0000000  0.6508444  3
   5647   5648   5651   5653     1  0.0000000  0.6508444  3
   5647   5658   5661   5662     1  0.0000000  0.6508444  3
   5647   5658   5661   5663     1  0.0000000  0.6508444  3
   5648   5647   5658   5659     1  0.0000000  1.2552000  3
   5648   5647   5658   5660     1  0.0000000  1.2552000  3
   5649   5648   5647   5658     1  0.0000000  1.2552000  3
   5649   5648   5651   5654     1  0.0000000  0.6508444  3
   5649   5648   5651   5652     1  0.0000000  0.6508444  3
   5649   5648   5651   5653     1  0.0000000  0.6508444  3
   5650   5648   5647   5658     1  0.0000000  1.2552000  3
   5650   5648   5651   5654     1  0.0000000  0.6508444  3
   5650   5648   5651   5652     1  0.0000000  0.6508444  3
   5650   5648   5651   5653     1  0.0000000  0.6508444  3
   5651   5654   5656   5657     1  180.0000771  9.6232000  2
   5652   5651   5654   5655     1  0.0000000  3.3472000  1
   5652   5651   5654   5655     1  0.0000000  0.0000000  2
   5652   5651   5654   5655     1  180.0000771  0.3347200  3
   5652   5651   5654   5656     1  180.0000771  0.0000000  2
   5653   5651   5654   5655     1  0.0000000  3.3472000  1
   5653   5651   5654   5655     1  0.0000000  0.0000000  2
   5653   5651   5654   5655     1  180.0000771  0.3347200  3
   5653   5651   5654   5656     1  180.0000771  0.0000000  2
   5655   5654   5656   5657     1  0.0000000  7.9496000  1
   5655   5654   5656   5657     1  180.0000771  9.6232000  2
   5659   5658   5661   5664     1  0.0000000  0.6508444  3
   5659   5658   5661   5662     1  0.0000000  0.6508444  3
   5659   5658   5661   5663     1  0.0000000  0.6508444  3
   5660   5658   5661   5664     1  0.0000000  0.6508444  3
   5660   5658   5661   5662     1  0.0000000  0.6508444  3
   5660   5658   5661   5663     1  0.0000000  0.6508444  3
   5661   5664   5666   5667     1  180.0000771  9.6232000  2
   5662   5661   5664   5665     1  0.0000000  3.3472000  1
   5662   5661   5664   5665     1  0.0000000  0.0000000  2
   5662   5661   5664   5665     1  180.0000771  0.3347200  3
   5662   5661   5664   5666     1  180.0000771  0.0000000  2
   5663   5661   5664   5665     1  0.0000000  3.3472000  1
   5663   5661   5664   5665     1  0.0000000  0.0000000  2
   5663   5661   5664   5665     1  180.0000771  0.3347200  3
   5663   5661   5664   5666     1  180.0000771  0.0000000  2
   5665   5664   5666   5667     1  0.0000000  7.9496000  1
   5665   5664   5666   5667     1  180.0000771  9.6232000  2
   5669   5672   5675   5676     1  0.0000000  0.6508444  3
   5669   5672   5675   5677     1  0.0000000  0.6508444  3
   5670   5669   5672   5675     1  0.0000000  0.6508444  3
   5670   5669   5672   5673     1  0.0000000  0.6508444  3
   5670   5669   5672   5674     1  0.0000000  0.6508444  3
   5671   5669   5672   5675     1  0.0000000  0.6508444  3
   5671   5669   5672   5673     1  0.0000000  0.6508444  3
   5671   5669   5672   5674     1  0.0000000  0.6508444  3
   5673   5672   5675   5678     1  0.0000000  0.6508444  3
   5673   5672   5675   5676     1  0.0000000  0.6508444  3
   5673   5672   5675   5677     1  0.0000000  0.6508444  3
   5673   5672   5669   5699     1  0.0000000  1.0460000  1
   5673   5672   5669   5699     1  0.0000000  0.0000000  3
   5674   5672   5675   5678     1  0.0000000  0.6508444  3
   5674   5672   5675   5676     1  0.0000000  0.6508444  3
   5674   5672   5675   5677     1  0.0000000  0.6508444  3
   5674   5672   5669   5699     1  0.0000000  1.0460000  1
   5674   5672   5669   5699     1  0.0000000  0.0000000  3
   5675   5678   5679   5680     1  0.0000000  1.2552000  3
   5675   5678   5679   5681     1  0.0000000  1.2552000  3
   5675   5678   5689   5690     1  0.0000000  1.2552000  3
   5675   5678   5689   5691     1  0.0000000  1.2552000  3
   5676   5675   5678   5679     1  0.0000000  1.2552000  3
   5676   5675   5678   5689     1  0.0000000  1.2552000  3
   5677   5675   5678   5679     1  0.0000000  1.2552000  3
   5677   5675   5678   5689     1  0.0000000  1.2552000  3
   5678   5679   5682   5683     1  0.0000000  0.6508444  3
   5678   5679   5682   5684     1  0.0000000  0.6508444  3
   5678   5689   5692   5693     1  0.0000000  0.6508444  3
   5678   5689   5692   5694     1  0.0000000  0.6508444  3
   5679   5678   5689   5690     1  0.0000000  1.2552000  3
   5679   5678   5689   5691     1  0.0000000  1.2552000  3
   5680   5679   5682   5685     1  0.0000000  0.6508444  3
   5680   5679   5682   5683     1  0.0000000  0.6508444  3
   5680   5679   5682   5684     1  0.0000000  0.6508444  3
   5680   5679   5678   5689     1  0.0000000  1.2552000  3
   5681   5679   5682   5685     1  0.0000000  0.6508444  3
   5681   5679   5682   5683     1  0.0000000  0.6508444  3
   5681   5679   5682   5684     1  0.0000000  0.6508444  3
   5681   5679   5678   5689     1  0.0000000  1.2552000  3
   5682   5685   5687   5688     1  180.0000771  9.6232000  2
   5683   5682   5685   5686     1  0.0000000  3.3472000  1
   5683   5682   5685   5686     1  0.0000000  0.0000000  2
   5683   5682   5685   5686     1  180.0000771  0.3347200  3
   5683   5682   5685   5687     1  180.0000771  0.0000000  2
   5684   5682   5685   5686     1  0.0000000  3.3472000  1
   5684   5682   5685   5686     1  0.0000000  0.0000000  2
   5684   5682   5685   5686     1  180.0000771  0.3347200  3
   5684   5682   5685   5687     1  180.0000771  0.0000000  2
   5686   5685   5687   5688     1  0.0000000  7.9496000  1
   5686   5685   5687   5688     1  180.0000771  9.6232000  2
   5690   5689   5692   5695     1  0.0000000  0.6508444  3
   5690   5689   5692   5693     1  0.0000000  0.6508444  3
   5690   5689   5692   5694     1  0.0000000  0.6508444  3
   5691   5689   5692   5695     1  0.0000000  0.6508444  3
   5691   5689   5692   5693     1  0.0000000  0.6508444  3
   5691   5689   5692   5694     1  0.0000000  0.6508444  3
   5692   5695   5697   5698     1  180.0000771  9.6232000  2
   5693   5692   5695   5696     1  0.0000000  3.3472000  1
   5693   5692   5695   5696     1  0.0000000  0.0000000  2
   5693   5692   5695   5696     1  180.0000771  0.3347200  3
   5693   5692   5695   5697     1  180.0000771  0.0000000  2
   5694   5692   5695   5696     1  0.0000000  3.3472000  1
   5694   5692   5695   5696     1  0.0000000  0.0000000  2
   5694   5692   5695   5696     1  180.0000771  0.3347200  3
   5694   5692   5695   5697     1  180.0000771  0.0000000  2
   5696   5695   5697   5698     1  0.0000000  7.9496000  1
   5696   5695   5697   5698     1  180.0000771  9.6232000  2
   5700   5703   5706   5707     1  0.0000000  0.6508444  3
   5700   5703   5706   5708     1  0.0000000  0.6508444  3
   5701   5700   5703   5706     1  0.0000000  0.6508444  3
   5701   5700   5703   5704     1  0.0000000  0.6508444  3
   5701   5700   5703   5705     1  0.0000000  0.6508444  3
   5702   5700   5703   5706     1  0.0000000  0.6508444  3
   5702   5700   5703   5704     1  0.0000000  0.6508444  3
   5702   5700   5703   5705     1  0.0000000  0.6508444  3
   5704   5703   5700   5730     1  0.0000000  1.0460000  1
   5704   5703   5700   5730     1  0.0000000  0.0000000  3
   5704   5703   5706   5709     1  0.0000000  0.6508444  3
   5704   5703   5706   5707     1  0.0000000  0.6508444  3
   5704   5703   5706   5708     1  0.0000000  0.6508444  3
   5705   5703   5700   5730     1  0.0000000  1.0460000  1
   5705   5703   5700   5730     1  0.0000000  0.0000000  3
   5705   5703   5706   5709     1  0.0000000  0.6508444  3
   5705   5703   5706   5707     1  0.0000000  0.6508444  3
   5705   5703   5706   5708     1  0.0000000  0.6508444  3
   5706   5709   5710   5711     1  0.0000000  1.2552000  3
   5706   5709   5710   5712     1  0.0000000  1.2552000  3
   5706   5709   5720   5721     1  0.0000000  1.2552000  3
   5706   5709   5720   5722     1  0.0000000  1.2552000  3
   5707   5706   5709   5710     1  0.0000000  1.2552000  3
   5707   5706   5709   5720     1  0.0000000  1.2552000  3
   5708   5706   5709   5710     1  0.0000000  1.2552000  3
   5708   5706   5709   5720     1  0.0000000  1.2552000  3
   5709   5710   5713   5714     1  0.0000000  0.6508444  3
   5709   5710   5713   5715     1  0.0000000  0.6508444  3
   5709   5720   5723   5724     1  0.0000000  0.6508444  3
   5709   5720   5723   5725     1  0.0000000  0.6508444  3
   5710   5709   5720   5721     1  0.0000000  1.2552000  3
   5710   5709   5720   5722     1  0.0000000  1.2552000  3
   5711   5710   5709   5720     1  0.0000000  1.2552000  3
   5711   5710   5713   5716     1  0.0000000  0.6508444  3
   5711   5710   5713   5714     1  0.0000000  0.6508444  3
   5711   5710   5713   5715     1  0.0000000  0.6508444  3
   5712   5710   5709   5720     1  0.0000000  1.2552000  3
   5712   5710   5713   5716     1  0.0000000  0.6508444  3
   5712   5710   5713   5714     1  0.0000000  0.6508444  3
   5712   5710   5713   5715     1  0.0000000  0.6508444  3
   5713   5716   5718   5719     1  180.0000771  9.6232000  2
   5714   5713   5716   5717     1  0.0000000  3.3472000  1
   5714   5713   5716   5717     1  0.0000000  0.0000000  2
   5714   5713   5716   5717     1  180.0000771  0.3347200  3
   5714   5713   5716   5718     1  180.0000771  0.0000000  2
   5715   5713   5716   5717     1  0.0000000  3.3472000  1
   5715   5713   5716   5717     1  0.0000000  0.0000000  2
   5715   5713   5716   5717     1  180.0000771  0.3347200  3
   5715   5713   5716   5718     1  180.0000771  0.0000000  2
   5717   5716   5718   5719     1  0.0000000  7.9496000  1
   5717   5716   5718   5719     1  180.0000771  9.6232000  2
   5721   5720   5723   5726     1  0.0000000  0.6508444  3
   5721   5720   5723   5724     1  0.0000000  0.6508444  3
   5721   5720   5723   5725     1  0.0000000  0.6508444  3
   5722   5720   5723   5726     1  0.0000000  0.6508444  3
   5722   5720   5723   5724     1  0.0000000  0.6508444  3
   5722   5720   5723   5725     1  0.0000000  0.6508444  3
   5723   5726   5728   5729     1  180.0000771  9.6232000  2
   5724   5723   5726   5727     1  0.0000000  3.3472000  1
   5724   5723   5726   5727     1  0.0000000  0.0000000  2
   5724   5723   5726   5727     1  180.0000771  0.3347200  3
   5724   5723   5726   5728     1  180.0000771  0.0000000  2
   5725   5723   5726   5727     1  0.0000000  3.3472000  1
   5725   5723   5726   5727     1  0.0000000  0.0000000  2
   5725   5723   5726   5727     1  180.0000771  0.3347200  3
   5725   5723   5726   5728     1  180.0000771  0.0000000  2
   5727   5726   5728   5729     1  0.0000000  7.9496000  1
   5727   5726   5728   5729     1  180.0000771  9.6232000  2
   5731   5734   5737   5738     1  0.0000000  0.6508444  3
   5731   5734   5737   5739     1  0.0000000  0.6508444  3
   5732   5731   5734   5737     1  0.0000000  0.6508444  3
   5732   5731   5734   5735     1  0.0000000  0.6508444  3
   5732   5731   5734   5736     1  0.0000000  0.6508444  3
   5733   5731   5734   5737     1  0.0000000  0.6508444  3
   5733   5731   5734   5735     1  0.0000000  0.6508444  3
   5733   5731   5734   5736     1  0.0000000  0.6508444  3
   5735   5734   5737   5740     1  0.0000000  0.6508444  3
   5735   5734   5737   5738     1  0.0000000  0.6508444  3
   5735   5734   5737   5739     1  0.0000000  0.6508444  3
   5735   5734   5731   5761     1  0.0000000  1.0460000  1
   5735   5734   5731   5761     1  0.0000000  0.0000000  3
   5736   5734   5737   5740     1  0.0000000  0.6508444  3
   5736   5734   5737   5738     1  0.0000000  0.6508444  3
   5736   5734   5737   5739     1  0.0000000  0.6508444  3
   5736   5734   5731   5761     1  0.0000000  1.0460000  1
   5736   5734   5731   5761     1  0.0000000  0.0000000  3
   5737   5740   5741   5742     1  0.0000000  1.2552000  3
   5737   5740   5741   5743     1  0.0000000  1.2552000  3
   5737   5740   5751   5752     1  0.0000000  1.2552000  3
   5737   5740   5751   5753     1  0.0000000  1.2552000  3
   5738   5737   5740   5741     1  0.0000000  1.2552000  3
   5738   5737   5740   5751     1  0.0000000  1.2552000  3
   5739   5737   5740   5741     1  0.0000000  1.2552000  3
   5739   5737   5740   5751     1  0.0000000  1.2552000  3
   5740   5741   5744   5745     1  0.0000000  0.6508444  3
   5740   5741   5744   5746     1  0.0000000  0.6508444  3
   5740   5751   5754   5755     1  0.0000000  0.6508444  3
   5740   5751   5754   5756     1  0.0000000  0.6508444  3
   5741   5740   5751   5752     1  0.0000000  1.2552000  3
   5741   5740   5751   5753     1  0.0000000  1.2552000  3
   5742   5741   5744   5747     1  0.0000000  0.6508444  3
   5742   5741   5744   5745     1  0.0000000  0.6508444  3
   5742   5741   5744   5746     1  0.0000000  0.6508444  3
   5742   5741   5740   5751     1  0.0000000  1.2552000  3
   5743   5741   5744   5747     1  0.0000000  0.6508444  3
   5743   5741   5744   5745     1  0.0000000  0.6508444  3
   5743   5741   5744   5746     1  0.0000000  0.6508444  3
   5743   5741   5740   5751     1  0.0000000  1.2552000  3
   5744   5747   5749   5750     1  180.0000771  9.6232000  2
   5745   5744   5747   5748     1  0.0000000  3.3472000  1
   5745   5744   5747   5748     1  0.0000000  0.0000000  2
   5745   5744   5747   5748     1  180.0000771  0.3347200  3
   5745   5744   5747   5749     1  180.0000771  0.0000000  2
   5746   5744   5747   5748     1  0.0000000  3.3472000  1
   5746   5744   5747   5748     1  0.0000000  0.0000000  2
   5746   5744   5747   5748     1  180.0000771  0.3347200  3
   5746   5744   5747   5749     1  180.0000771  0.0000000  2
   5748   5747   5749   5750     1  0.0000000  7.9496000  1
   5748   5747   5749   5750     1  180.0000771  9.6232000  2
   5752   5751   5754   5757     1  0.0000000  0.6508444  3
   5752   5751   5754   5755     1  0.0000000  0.6508444  3
   5752   5751   5754   5756     1  0.0000000  0.6508444  3
   5753   5751   5754   5757     1  0.0000000  0.6508444  3
   5753   5751   5754   5755     1  0.0000000  0.6508444  3
   5753   5751   5754   5756     1  0.0000000  0.6508444  3
   5754   5757   5759   5760     1  180.0000771  9.6232000  2
   5755   5754   5757   5758     1  0.0000000  3.3472000  1
   5755   5754   5757   5758     1  0.0000000  0.0000000  2
   5755   5754   5757   5758     1  180.0000771  0.3347200  3
   5755   5754   5757   5759     1  180.0000771  0.0000000  2
   5756   5754   5757   5758     1  0.0000000  3.3472000  1
   5756   5754   5757   5758     1  0.0000000  0.0000000  2
   5756   5754   5757   5758     1  180.0000771  0.3347200  3
   5756   5754   5757   5759     1  180.0000771  0.0000000  2
   5758   5757   5759   5760     1  0.0000000  7.9496000  1
   5758   5757   5759   5760     1  180.0000771  9.6232000  2
   5762   5765   5768   5769     1  0.0000000  0.6508444  3
   5762   5765   5768   5770     1  0.0000000  0.6508444  3
   5763   5762   5765   5768     1  0.0000000  0.6508444  3
   5763   5762   5765   5766     1  0.0000000  0.6508444  3
   5763   5762   5765   5767     1  0.0000000  0.6508444  3
   5764   5762   5765   5768     1  0.0000000  0.6508444  3
   5764   5762   5765   5766     1  0.0000000  0.6508444  3
   5764   5762   5765   5767     1  0.0000000  0.6508444  3
   5766   5765   5762   5792     1  0.0000000  1.0460000  1
   5766   5765   5762   5792     1  0.0000000  0.0000000  3
   5766   5765   5768   5771     1  0.0000000  0.6508444  3
   5766   5765   5768   5769     1  0.0000000  0.6508444  3
   5766   5765   5768   5770     1  0.0000000  0.6508444  3
   5767   5765   5762   5792     1  0.0000000  1.0460000  1
   5767   5765   5762   5792     1  0.0000000  0.0000000  3
   5767   5765   5768   5771     1  0.0000000  0.6508444  3
   5767   5765   5768   5769     1  0.0000000  0.6508444  3
   5767   5765   5768   5770     1  0.0000000  0.6508444  3
   5768   5771   5772   5773     1  0.0000000  1.2552000  3
   5768   5771   5772   5774     1  0.0000000  1.2552000  3
   5768   5771   5782   5783     1  0.0000000  1.2552000  3
   5768   5771   5782   5784     1  0.0000000  1.2552000  3
   5769   5768   5771   5772     1  0.0000000  1.2552000  3
   5769   5768   5771   5782     1  0.0000000  1.2552000  3
   5770   5768   5771   5772     1  0.0000000  1.2552000  3
   5770   5768   5771   5782     1  0.0000000  1.2552000  3
   5771   5772   5775   5776     1  0.0000000  0.6508444  3
   5771   5772   5775   5777     1  0.0000000  0.6508444  3
   5771   5782   5785   5786     1  0.0000000  0.6508444  3
   5771   5782   5785   5787     1  0.0000000  0.6508444  3
   5772   5771   5782   5783     1  0.0000000  1.2552000  3
   5772   5771   5782   5784     1  0.0000000  1.2552000  3
   5773   5772   5771   5782     1  0.0000000  1.2552000  3
   5773   5772   5775   5778     1  0.0000000  0.6508444  3
   5773   5772   5775   5776     1  0.0000000  0.6508444  3
   5773   5772   5775   5777     1  0.0000000  0.6508444  3
   5774   5772   5771   5782     1  0.0000000  1.2552000  3
   5774   5772   5775   5778     1  0.0000000  0.6508444  3
   5774   5772   5775   5776     1  0.0000000  0.6508444  3
   5774   5772   5775   5777     1  0.0000000  0.6508444  3
   5775   5778   5780   5781     1  180.0000771  9.6232000  2
   5776   5775   5778   5779     1  0.0000000  3.3472000  1
   5776   5775   5778   5779     1  0.0000000  0.0000000  2
   5776   5775   5778   5779     1  180.0000771  0.3347200  3
   5776   5775   5778   5780     1  180.0000771  0.0000000  2
   5777   5775   5778   5779     1  0.0000000  3.3472000  1
   5777   5775   5778   5779     1  0.0000000  0.0000000  2
   5777   5775   5778   5779     1  180.0000771  0.3347200  3
   5777   5775   5778   5780     1  180.0000771  0.0000000  2
   5779   5778   5780   5781     1  0.0000000  7.9496000  1
   5779   5778   5780   5781     1  180.0000771  9.6232000  2
   5783   5782   5785   5788     1  0.0000000  0.6508444  3
   5783   5782   5785   5786     1  0.0000000  0.6508444  3
   5783   5782   5785   5787     1  0.0000000  0.6508444  3
   5784   5782   5785   5788     1  0.0000000  0.6508444  3
   5784   5782   5785   5786     1  0.0000000  0.6508444  3
   5784   5782   5785   5787     1  0.0000000  0.6508444  3
   5785   5788   5790   5791     1  180.0000771  9.6232000  2
   5786   5785   5788   5789     1  0.0000000  3.3472000  1
   5786   5785   5788   5789     1  0.0000000  0.0000000  2
   5786   5785   5788   5789     1  180.0000771  0.3347200  3
   5786   5785   5788   5790     1  180.0000771  0.0000000  2
   5787   5785   5788   5789     1  0.0000000  3.3472000  1
   5787   5785   5788   5789     1  0.0000000  0.0000000  2
   5787   5785   5788   5789     1  180.0000771  0.3347200  3
   5787   5785   5788   5790     1  180.0000771  0.0000000  2
   5789   5788   5790   5791     1  0.0000000  7.9496000  1
   5789   5788   5790   5791     1  180.0000771  9.6232000  2
   5793   5796   5799   5800     1  0.0000000  0.6508444  3
   5793   5796   5799   5801     1  0.0000000  0.6508444  3
   5794   5793   5796   5799     1  0.0000000  0.6508444  3
   5794   5793   5796   5797     1  0.0000000  0.6508444  3
   5794   5793   5796   5798     1  0.0000000  0.6508444  3
   5795   5793   5796   5799     1  0.0000000  0.6508444  3
   5795   5793   5796   5797     1  0.0000000  0.6508444  3
   5795   5793   5796   5798     1  0.0000000  0.6508444  3
   5797   5796   5799   5802     1  0.0000000  0.6508444  3
   5797   5796   5799   5800     1  0.0000000  0.6508444  3
   5797   5796   5799   5801     1  0.0000000  0.6508444  3
   5797   5796   5793   5823     1  0.0000000  1.0460000  1
   5797   5796   5793   5823     1  0.0000000  0.0000000  3
   5798   5796   5799   5802     1  0.0000000  0.6508444  3
   5798   5796   5799   5800     1  0.0000000  0.6508444  3
   5798   5796   5799   5801     1  0.0000000  0.6508444  3
   5798   5796   5793   5823     1  0.0000000  1.0460000  1
   5798   5796   5793   5823     1  0.0000000  0.0000000  3
   5799   5802   5803   5804     1  0.0000000  1.2552000  3
   5799   5802   5803   5805     1  0.0000000  1.2552000  3
   5799   5802   5813   5814     1  0.0000000  1.2552000  3
   5799   5802   5813   5815     1  0.0000000  1.2552000  3
   5800   5799   5802   5803     1  0.0000000  1.2552000  3
   5800   5799   5802   5813     1  0.0000000  1.2552000  3
   5801   5799   5802   5803     1  0.0000000  1.2552000  3
   5801   5799   5802   5813     1  0.0000000  1.2552000  3
   5802   5803   5806   5807     1  0.0000000  0.6508444  3
   5802   5803   5806   5808     1  0.0000000  0.6508444  3
   5802   5813   5816   5817     1  0.0000000  0.6508444  3
   5802   5813   5816   5818     1  0.0000000  0.6508444  3
   5803   5802   5813   5814     1  0.0000000  1.2552000  3
   5803   5802   5813   5815     1  0.0000000  1.2552000  3
   5804   5803   5806   5809     1  0.0000000  0.6508444  3
   5804   5803   5806   5807     1  0.0000000  0.6508444  3
   5804   5803   5806   5808     1  0.0000000  0.6508444  3
   5804   5803   5802   5813     1  0.0000000  1.2552000  3
   5805   5803   5806   5809     1  0.0000000  0.6508444  3
   5805   5803   5806   5807     1  0.0000000  0.6508444  3
   5805   5803   5806   5808     1  0.0000000  0.6508444  3
   5805   5803   5802   5813     1  0.0000000  1.2552000  3
   5806   5809   5811   5812     1  180.0000771  9.6232000  2
   5807   5806   5809   5810     1  0.0000000  3.3472000  1
   5807   5806   5809   5810     1  0.0000000  0.0000000  2
   5807   5806   5809   5810     1  180.0000771  0.3347200  3
   5807   5806   5809   5811     1  180.0000771  0.0000000  2
   5808   5806   5809   5810     1  0.0000000  3.3472000  1
   5808   5806   5809   5810     1  0.0000000  0.0000000  2
   5808   5806   5809   5810     1  180.0000771  0.3347200  3
   5808   5806   5809   5811     1  180.0000771  0.0000000  2
   5810   5809   5811   5812     1  0.0000000  7.9496000  1
   5810   5809   5811   5812     1  180.0000771  9.6232000  2
   5814   5813   5816   5819     1  0.0000000  0.6508444  3
   5814   5813   5816   5817     1  0.0000000  0.6508444  3
   5814   5813   5816   5818     1  0.0000000  0.6508444  3
   5815   5813   5816   5819     1  0.0000000  0.6508444  3
   5815   5813   5816   5817     1  0.0000000  0.6508444  3
   5815   5813   5816   5818     1  0.0000000  0.6508444  3
   5816   5819   5821   5822     1  180.0000771  9.6232000  2
   5817   5816   5819   5820     1  0.0000000  3.3472000  1
   5817   5816   5819   5820     1  0.0000000  0.0000000  2
   5817   5816   5819   5820     1  180.0000771  0.3347200  3
   5817   5816   5819   5821     1  180.0000771  0.0000000  2
   5818   5816   5819   5820     1  0.0000000  3.3472000  1
   5818   5816   5819   5820     1  0.0000000  0.0000000  2
   5818   5816   5819   5820     1  180.0000771  0.3347200  3
   5818   5816   5819   5821     1  180.0000771  0.0000000  2
   5820   5819   5821   5822     1  0.0000000  7.9496000  1
   5820   5819   5821   5822     1  180.0000771  9.6232000  2
   5824   5827   5830   5831     1  0.0000000  0.6508444  3
   5824   5827   5830   5832     1  0.0000000  0.6508444  3
   5825   5824   5827   5830     1  0.0000000  0.6508444  3
   5825   5824   5827   5828     1  0.0000000  0.6508444  3
   5825   5824   5827   5829     1  0.0000000  0.6508444  3
   5826   5824   5827   5830     1  0.0000000  0.6508444  3
   5826   5824   5827   5828     1  0.0000000  0.6508444  3
   5826   5824   5827   5829     1  0.0000000  0.6508444  3
   5828   5827   5824   5854     1  0.0000000  1.0460000  1
   5828   5827   5824   5854     1  0.0000000  0.0000000  3
   5828   5827   5830   5833     1  0.0000000  0.6508444  3
   5828   5827   5830   5831     1  0.0000000  0.6508444  3
   5828   5827   5830   5832     1  0.0000000  0.6508444  3
   5829   5827   5824   5854     1  0.0000000  1.0460000  1
   5829   5827   5824   5854     1  0.0000000  0.0000000  3
   5829   5827   5830   5833     1  0.0000000  0.6508444  3
   5829   5827   5830   5831     1  0.0000000  0.6508444  3
   5829   5827   5830   5832     1  0.0000000  0.6508444  3
   5830   5833   5834   5835     1  0.0000000  1.2552000  3
   5830   5833   5834   5836     1  0.0000000  1.2552000  3
   5830   5833   5844   5845     1  0.0000000  1.2552000  3
   5830   5833   5844   5846     1  0.0000000  1.2552000  3
   5831   5830   5833   5834     1  0.0000000  1.2552000  3
   5831   5830   5833   5844     1  0.0000000  1.2552000  3
   5832   5830   5833   5834     1  0.0000000  1.2552000  3
   5832   5830   5833   5844     1  0.0000000  1.2552000  3
   5833   5834   5837   5838     1  0.0000000  0.6508444  3
   5833   5834   5837   5839     1  0.0000000  0.6508444  3
   5833   5844   5847   5848     1  0.0000000  0.6508444  3
   5833   5844   5847   5849     1  0.0000000  0.6508444  3
   5834   5833   5844   5845     1  0.0000000  1.2552000  3
   5834   5833   5844   5846     1  0.0000000  1.2552000  3
   5835   5834   5833   5844     1  0.0000000  1.2552000  3
   5835   5834   5837   5840     1  0.0000000  0.6508444  3
   5835   5834   5837   5838     1  0.0000000  0.6508444  3
   5835   5834   5837   5839     1  0.0000000  0.6508444  3
   5836   5834   5833   5844     1  0.0000000  1.2552000  3
   5836   5834   5837   5840     1  0.0000000  0.6508444  3
   5836   5834   5837   5838     1  0.0000000  0.6508444  3
   5836   5834   5837   5839     1  0.0000000  0.6508444  3
   5837   5840   5842   5843     1  180.0000771  9.6232000  2
   5838   5837   5840   5841     1  0.0000000  3.3472000  1
   5838   5837   5840   5841     1  0.0000000  0.0000000  2
   5838   5837   5840   5841     1  180.0000771  0.3347200  3
   5838   5837   5840   5842     1  180.0000771  0.0000000  2
   5839   5837   5840   5841     1  0.0000000  3.3472000  1
   5839   5837   5840   5841     1  0.0000000  0.0000000  2
   5839   5837   5840   5841     1  180.0000771  0.3347200  3
   5839   5837   5840   5842     1  180.0000771  0.0000000  2
   5841   5840   5842   5843     1  0.0000000  7.9496000  1
   5841   5840   5842   5843     1  180.0000771  9.6232000  2
   5845   5844   5847   5850     1  0.0000000  0.6508444  3
   5845   5844   5847   5848     1  0.0000000  0.6508444  3
   5845   5844   5847   5849     1  0.0000000  0.6508444  3
   5846   5844   5847   5850     1  0.0000000  0.6508444  3
   5846   5844   5847   5848     1  0.0000000  0.6508444  3
   5846   5844   5847   5849     1  0.0000000  0.6508444  3
   5847   5850   5852   5853     1  180.0000771  9.6232000  2
   5848   5847   5850   5851     1  0.0000000  3.3472000  1
   5848   5847   5850   5851     1  0.0000000  0.0000000  2
   5848   5847   5850   5851     1  180.0000771  0.3347200  3
   5848   5847   5850   5852     1  180.0000771  0.0000000  2
   5849   5847   5850   5851     1  0.0000000  3.3472000  1
   5849   5847   5850   5851     1  0.0000000  0.0000000  2
   5849   5847   5850   5851     1  180.0000771  0.3347200  3
   5849   5847   5850   5852     1  180.0000771  0.0000000  2
   5851   5850   5852   5853     1  0.0000000  7.9496000  1
   5851   5850   5852   5853     1  180.0000771  9.6232000  2
   5855   5858   5861   5862     1  0.0000000  0.6508444  3
   5855   5858   5861   5863     1  0.0000000  0.6508444  3
   5856   5855   5858   5861     1  0.0000000  0.6508444  3
   5856   5855   5858   5859     1  0.0000000  0.6508444  3
   5856   5855   5858   5860     1  0.0000000  0.6508444  3
   5857   5855   5858   5861     1  0.0000000  0.6508444  3
   5857   5855   5858   5859     1  0.0000000  0.6508444  3
   5857   5855   5858   5860     1  0.0000000  0.6508444  3
   5859   5858   5861   5864     1  0.0000000  0.6508444  3
   5859   5858   5861   5862     1  0.0000000  0.6508444  3
   5859   5858   5861   5863     1  0.0000000  0.6508444  3
   5859   5858   5855   5885     1  0.0000000  1.0460000  1
   5859   5858   5855   5885     1  0.0000000  0.0000000  3
   5860   5858   5861   5864     1  0.0000000  0.6508444  3
   5860   5858   5861   5862     1  0.0000000  0.6508444  3
   5860   5858   5861   5863     1  0.0000000  0.6508444  3
   5860   5858   5855   5885     1  0.0000000  1.0460000  1
   5860   5858   5855   5885     1  0.0000000  0.0000000  3
   5861   5864   5865   5866     1  0.0000000  1.2552000  3
   5861   5864   5865   5867     1  0.0000000  1.2552000  3
   5861   5864   5875   5876     1  0.0000000  1.2552000  3
   5861   5864   5875   5877     1  0.0000000  1.2552000  3
   5862   5861   5864   5865     1  0.0000000  1.2552000  3
   5862   5861   5864   5875     1  0.0000000  1.2552000  3
   5863   5861   5864   5865     1  0.0000000  1.2552000  3
   5863   5861   5864   5875     1  0.0000000  1.2552000  3
   5864   5865   5868   5869     1  0.0000000  0.6508444  3
   5864   5865   5868   5870     1  0.0000000  0.6508444  3
   5864   5875   5878   5879     1  0.0000000  0.6508444  3
   5864   5875   5878   5880     1  0.0000000  0.6508444  3
   5865   5864   5875   5876     1  0.0000000  1.2552000  3
   5865   5864   5875   5877     1  0.0000000  1.2552000  3
   5866   5865   5868   5871     1  0.0000000  0.6508444  3
   5866   5865   5868   5869     1  0.0000000  0.6508444  3
   5866   5865   5868   5870     1  0.0000000  0.6508444  3
   5866   5865   5864   5875     1  0.0000000  1.2552000  3
   5867   5865   5868   5871     1  0.0000000  0.6508444  3
   5867   5865   5868   5869     1  0.0000000  0.6508444  3
   5867   5865   5868   5870     1  0.0000000  0.6508444  3
   5867   5865   5864   5875     1  0.0000000  1.2552000  3
   5868   5871   5873   5874     1  180.0000771  9.6232000  2
   5869   5868   5871   5872     1  0.0000000  3.3472000  1
   5869   5868   5871   5872     1  0.0000000  0.0000000  2
   5869   5868   5871   5872     1  180.0000771  0.3347200  3
   5869   5868   5871   5873     1  180.0000771  0.0000000  2
   5870   5868   5871   5872     1  0.0000000  3.3472000  1
   5870   5868   5871   5872     1  0.0000000  0.0000000  2
   5870   5868   5871   5872     1  180.0000771  0.3347200  3
   5870   5868   5871   5873     1  180.0000771  0.0000000  2
   5872   5871   5873   5874     1  0.0000000  7.9496000  1
   5872   5871   5873   5874     1  180.0000771  9.6232000  2
   5876   5875   5878   5881     1  0.0000000  0.6508444  3
   5876   5875   5878   5879     1  0.0000000  0.6508444  3
   5876   5875   5878   5880     1  0.0000000  0.6508444  3
   5877   5875   5878   5881     1  0.0000000  0.6508444  3
   5877   5875   5878   5879     1  0.0000000  0.6508444  3
   5877   5875   5878   5880     1  0.0000000  0.6508444  3
   5878   5881   5883   5884     1  180.0000771  9.6232000  2
   5879   5878   5881   5882     1  0.0000000  3.3472000  1
   5879   5878   5881   5882     1  0.0000000  0.0000000  2
   5879   5878   5881   5882     1  180.0000771  0.3347200  3
   5879   5878   5881   5883     1  180.0000771  0.0000000  2
   5880   5878   5881   5882     1  0.0000000  3.3472000  1
   5880   5878   5881   5882     1  0.0000000  0.0000000  2
   5880   5878   5881   5882     1  180.0000771  0.3347200  3
   5880   5878   5881   5883     1  180.0000771  0.0000000  2
   5882   5881   5883   5884     1  0.0000000  7.9496000  1
   5882   5881   5883   5884     1  180.0000771  9.6232000  2
   5886   5889   5892   5893     1  0.0000000  0.6508444  3
   5886   5889   5892   5894     1  0.0000000  0.6508444  3
   5887   5886   5889   5892     1  0.0000000  0.6508444  3
   5887   5886   5889   5890     1  0.0000000  0.6508444  3
   5887   5886   5889   5891     1  0.0000000  0.6508444  3
   5888   5886   5889   5892     1  0.0000000  0.6508444  3
   5888   5886   5889   5890     1  0.0000000  0.6508444  3
   5888   5886   5889   5891     1  0.0000000  0.6508444  3
   5890   5889   5886   5916     1  0.0000000  1.0460000  1
   5890   5889   5886   5916     1  0.0000000  0.0000000  3
   5890   5889   5892   5895     1  0.0000000  0.6508444  3
   5890   5889   5892   5893     1  0.0000000  0.6508444  3
   5890   5889   5892   5894     1  0.0000000  0.6508444  3
   5891   5889   5886   5916     1  0.0000000  1.0460000  1
   5891   5889   5886   5916     1  0.0000000  0.0000000  3
   5891   5889   5892   5895     1  0.0000000  0.6508444  3
   5891   5889   5892   5893     1  0.0000000  0.6508444  3
   5891   5889   5892   5894     1  0.0000000  0.6508444  3
   5892   5895   5896   5897     1  0.0000000  1.2552000  3
   5892   5895   5896   5898     1  0.0000000  1.2552000  3
   5892   5895   5906   5907     1  0.0000000  1.2552000  3
   5892   5895   5906   5908     1  0.0000000  1.2552000  3
   5893   5892   5895   5896     1  0.0000000  1.2552000  3
   5893   5892   5895   5906     1  0.0000000  1.2552000  3
   5894   5892   5895   5896     1  0.0000000  1.2552000  3
   5894   5892   5895   5906     1  0.0000000  1.2552000  3
   5895   5896   5899   5900     1  0.0000000  0.6508444  3
   5895   5896   5899   5901     1  0.0000000  0.6508444  3
   5895   5906   5909   5910     1  0.0000000  0.6508444  3
   5895   5906   5909   5911     1  0.0000000  0.6508444  3
   5896   5895   5906   5907     1  0.0000000  1.2552000  3
   5896   5895   5906   5908     1  0.0000000  1.2552000  3
   5897   5896   5895   5906     1  0.0000000  1.2552000  3
   5897   5896   5899   5902     1  0.0000000  0.6508444  3
   5897   5896   5899   5900     1  0.0000000  0.6508444  3
   5897   5896   5899   5901     1  0.0000000  0.6508444  3
   5898   5896   5895   5906     1  0.0000000  1.2552000  3
   5898   5896   5899   5902     1  0.0000000  0.6508444  3
   5898   5896   5899   5900     1  0.0000000  0.6508444  3
   5898   5896   5899   5901     1  0.0000000  0.6508444  3
   5899   5902   5904   5905     1  180.0000771  9.6232000  2
   5900   5899   5902   5903     1  0.0000000  3.3472000  1
   5900   5899   5902   5903     1  0.0000000  0.0000000  2
   5900   5899   5902   5903     1  180.0000771  0.3347200  3
   5900   5899   5902   5904     1  180.0000771  0.0000000  2
   5901   5899   5902   5903     1  0.0000000  3.3472000  1
   5901   5899   5902   5903     1  0.0000000  0.0000000  2
   5901   5899   5902   5903     1  180.0000771  0.3347200  3
   5901   5899   5902   5904     1  180.0000771  0.0000000  2
   5903   5902   5904   5905     1  0.0000000  7.9496000  1
   5903   5902   5904   5905     1  180.0000771  9.6232000  2
   5907   5906   5909   5912     1  0.0000000  0.6508444  3
   5907   5906   5909   5910     1  0.0000000  0.6508444  3
   5907   5906   5909   5911     1  0.0000000  0.6508444  3
   5908   5906   5909   5912     1  0.0000000  0.6508444  3
   5908   5906   5909   5910     1  0.0000000  0.6508444  3
   5908   5906   5909   5911     1  0.0000000  0.6508444  3
   5909   5912   5914   5915     1  180.0000771  9.6232000  2
   5910   5909   5912   5913     1  0.0000000  3.3472000  1
   5910   5909   5912   5913     1  0.0000000  0.0000000  2
   5910   5909   5912   5913     1  180.0000771  0.3347200  3
   5910   5909   5912   5914     1  180.0000771  0.0000000  2
   5911   5909   5912   5913     1  0.0000000  3.3472000  1
   5911   5909   5912   5913     1  0.0000000  0.0000000  2
   5911   5909   5912   5913     1  180.0000771  0.3347200  3
   5911   5909   5912   5914     1  180.0000771  0.0000000  2
   5913   5912   5914   5915     1  0.0000000  7.9496000  1
   5913   5912   5914   5915     1  180.0000771  9.6232000  2
   5917   5920   5923   5924     1  0.0000000  0.6508444  3
   5917   5920   5923   5925     1  0.0000000  0.6508444  3
   5918   5917   5920   5923     1  0.0000000  0.6508444  3
   5918   5917   5920   5921     1  0.0000000  0.6508444  3
   5918   5917   5920   5922     1  0.0000000  0.6508444  3
   5919   5917   5920   5923     1  0.0000000  0.6508444  3
   5919   5917   5920   5921     1  0.0000000  0.6508444  3
   5919   5917   5920   5922     1  0.0000000  0.6508444  3
   5921   5920   5923   5926     1  0.0000000  0.6508444  3
   5921   5920   5923   5924     1  0.0000000  0.6508444  3
   5921   5920   5923   5925     1  0.0000000  0.6508444  3
   5921   5920   5917   5947     1  0.0000000  1.0460000  1
   5921   5920   5917   5947     1  0.0000000  0.0000000  3
   5922   5920   5923   5926     1  0.0000000  0.6508444  3
   5922   5920   5923   5924     1  0.0000000  0.6508444  3
   5922   5920   5923   5925     1  0.0000000  0.6508444  3
   5922   5920   5917   5947     1  0.0000000  1.0460000  1
   5922   5920   5917   5947     1  0.0000000  0.0000000  3
   5923   5926   5927   5928     1  0.0000000  1.2552000  3
   5923   5926   5927   5929     1  0.0000000  1.2552000  3
   5923   5926   5937   5938     1  0.0000000  1.2552000  3
   5923   5926   5937   5939     1  0.0000000  1.2552000  3
   5924   5923   5926   5927     1  0.0000000  1.2552000  3
   5924   5923   5926   5937     1  0.0000000  1.2552000  3
   5925   5923   5926   5927     1  0.0000000  1.2552000  3
   5925   5923   5926   5937     1  0.0000000  1.2552000  3
   5926   5927   5930   5931     1  0.0000000  0.6508444  3
   5926   5927   5930   5932     1  0.0000000  0.6508444  3
   5926   5937   5940   5941     1  0.0000000  0.6508444  3
   5926   5937   5940   5942     1  0.0000000  0.6508444  3
   5927   5926   5937   5938     1  0.0000000  1.2552000  3
   5927   5926   5937   5939     1  0.0000000  1.2552000  3
   5928   5927   5930   5933     1  0.0000000  0.6508444  3
   5928   5927   5930   5931     1  0.0000000  0.6508444  3
   5928   5927   5930   5932     1  0.0000000  0.6508444  3
   5928   5927   5926   5937     1  0.0000000  1.2552000  3
   5929   5927   5930   5933     1  0.0000000  0.6508444  3
   5929   5927   5930   5931     1  0.0000000  0.6508444  3
   5929   5927   5930   5932     1  0.0000000  0.6508444  3
   5929   5927   5926   5937     1  0.0000000  1.2552000  3
   5930   5933   5935   5936     1  180.0000771  9.6232000  2
   5931   5930   5933   5934     1  0.0000000  3.3472000  1
   5931   5930   5933   5934     1  0.0000000  0.0000000  2
   5931   5930   5933   5934     1  180.0000771  0.3347200  3
   5931   5930   5933   5935     1  180.0000771  0.0000000  2
   5932   5930   5933   5934     1  0.0000000  3.3472000  1
   5932   5930   5933   5934     1  0.0000000  0.0000000  2
   5932   5930   5933   5934     1  180.0000771  0.3347200  3
   5932   5930   5933   5935     1  180.0000771  0.0000000  2
   5934   5933   5935   5936     1  0.0000000  7.9496000  1
   5934   5933   5935   5936     1  180.0000771  9.6232000  2
   5938   5937   5940   5943     1  0.0000000  0.6508444  3
   5938   5937   5940   5941     1  0.0000000  0.6508444  3
   5938   5937   5940   5942     1  0.0000000  0.6508444  3
   5939   5937   5940   5943     1  0.0000000  0.6508444  3
   5939   5937   5940   5941     1  0.0000000  0.6508444  3
   5939   5937   5940   5942     1  0.0000000  0.6508444  3
   5940   5943   5945   5946     1  180.0000771  9.6232000  2
   5941   5940   5943   5944     1  0.0000000  3.3472000  1
   5941   5940   5943   5944     1  0.0000000  0.0000000  2
   5941   5940   5943   5944     1  180.0000771  0.3347200  3
   5941   5940   5943   5945     1  180.0000771  0.0000000  2
   5942   5940   5943   5944     1  0.0000000  3.3472000  1
   5942   5940   5943   5944     1  0.0000000  0.0000000  2
   5942   5940   5943   5944     1  180.0000771  0.3347200  3
   5942   5940   5943   5945     1  180.0000771  0.0000000  2
   5944   5943   5945   5946     1  0.0000000  7.9496000  1
   5944   5943   5945   5946     1  180.0000771  9.6232000  2
   5948   5951   5954   5955     1  0.0000000  0.6508444  3
   5948   5951   5954   5956     1  0.0000000  0.6508444  3
   5949   5948   5951   5954     1  0.0000000  0.6508444  3
   5949   5948   5951   5952     1  0.0000000  0.6508444  3
   5949   5948   5951   5953     1  0.0000000  0.6508444  3
   5950   5948   5951   5954     1  0.0000000  0.6508444  3
   5950   5948   5951   5952     1  0.0000000  0.6508444  3
   5950   5948   5951   5953     1  0.0000000  0.6508444  3
   5952   5951   5948   5978     1  0.0000000  1.0460000  1
   5952   5951   5948   5978     1  0.0000000  0.0000000  3
   5952   5951   5954   5957     1  0.0000000  0.6508444  3
   5952   5951   5954   5955     1  0.0000000  0.6508444  3
   5952   5951   5954   5956     1  0.0000000  0.6508444  3
   5953   5951   5948   5978     1  0.0000000  1.0460000  1
   5953   5951   5948   5978     1  0.0000000  0.0000000  3
   5953   5951   5954   5957     1  0.0000000  0.6508444  3
   5953   5951   5954   5955     1  0.0000000  0.6508444  3
   5953   5951   5954   5956     1  0.0000000  0.6508444  3
   5954   5957   5958   5959     1  0.0000000  1.2552000  3
   5954   5957   5958   5960     1  0.0000000  1.2552000  3
   5954   5957   5968   5969     1  0.0000000  1.2552000  3
   5954   5957   5968   5970     1  0.0000000  1.2552000  3
   5955   5954   5957   5958     1  0.0000000  1.2552000  3
   5955   5954   5957   5968     1  0.0000000  1.2552000  3
   5956   5954   5957   5958     1  0.0000000  1.2552000  3
   5956   5954   5957   5968     1  0.0000000  1.2552000  3
   5957   5958   5961   5962     1  0.0000000  0.6508444  3
   5957   5958   5961   5963     1  0.0000000  0.6508444  3
   5957   5968   5971   5972     1  0.0000000  0.6508444  3
   5957   5968   5971   5973     1  0.0000000  0.6508444  3
   5958   5957   5968   5969     1  0.0000000  1.2552000  3
   5958   5957   5968   5970     1  0.0000000  1.2552000  3
   5959   5958   5957   5968     1  0.0000000  1.2552000  3
   5959   5958   5961   5964     1  0.0000000  0.6508444  3
   5959   5958   5961   5962     1  0.0000000  0.6508444  3
   5959   5958   5961   5963     1  0.0000000  0.6508444  3
   5960   5958   5957   5968     1  0.0000000  1.2552000  3
   5960   5958   5961   5964     1  0.0000000  0.6508444  3
   5960   5958   5961   5962     1  0.0000000  0.6508444  3
   5960   5958   5961   5963     1  0.0000000  0.6508444  3
   5961   5964   5966   5967     1  180.0000771  9.6232000  2
   5962   5961   5964   5965     1  0.0000000  3.3472000  1
   5962   5961   5964   5965     1  0.0000000  0.0000000  2
   5962   5961   5964   5965     1  180.0000771  0.3347200  3
   5962   5961   5964   5966     1  180.0000771  0.0000000  2
   5963   5961   5964   5965     1  0.0000000  3.3472000  1
   5963   5961   5964   5965     1  0.0000000  0.0000000  2
   5963   5961   5964   5965     1  180.0000771  0.3347200  3
   5963   5961   5964   5966     1  180.0000771  0.0000000  2
   5965   5964   5966   5967     1  0.0000000  7.9496000  1
   5965   5964   5966   5967     1  180.0000771  9.6232000  2
   5969   5968   5971   5974     1  0.0000000  0.6508444  3
   5969   5968   5971   5972     1  0.0000000  0.6508444  3
   5969   5968   5971   5973     1  0.0000000  0.6508444  3
   5970   5968   5971   5974     1  0.0000000  0.6508444  3
   5970   5968   5971   5972     1  0.0000000  0.6508444  3
   5970   5968   5971   5973     1  0.0000000  0.6508444  3
   5971   5974   5976   5977     1  180.0000771  9.6232000  2
   5972   5971   5974   5975     1  0.0000000  3.3472000  1
   5972   5971   5974   5975     1  0.0000000  0.0000000  2
   5972   5971   5974   5975     1  180.0000771  0.3347200  3
   5972   5971   5974   5976     1  180.0000771  0.0000000  2
   5973   5971   5974   5975     1  0.0000000  3.3472000  1
   5973   5971   5974   5975     1  0.0000000  0.0000000  2
   5973   5971   5974   5975     1  180.0000771  0.3347200  3
   5973   5971   5974   5976     1  180.0000771  0.0000000  2
   5975   5974   5976   5977     1  0.0000000  7.9496000  1
   5975   5974   5976   5977     1  180.0000771  9.6232000  2
   5979   5982   5985   5986     1  0.0000000  0.6508444  3
   5979   5982   5985   5987     1  0.0000000  0.6508444  3
   5980   5979   5982   5985     1  0.0000000  0.6508444  3
   5980   5979   5982   5983     1  0.0000000  0.6508444  3
   5980   5979   5982   5984     1  0.0000000  0.6508444  3
   5981   5979   5982   5985     1  0.0000000  0.6508444  3
   5981   5979   5982   5983     1  0.0000000  0.6508444  3
   5981   5979   5982   5984     1  0.0000000  0.6508444  3
   5983   5982   5985   5988     1  0.0000000  0.6508444  3
   5983   5982   5985   5986     1  0.0000000  0.6508444  3
   5983   5982   5985   5987     1  0.0000000  0.6508444  3
   5983   5982   5979   6009     1  0.0000000  1.0460000  1
   5983   5982   5979   6009     1  0.0000000  0.0000000  3
   5984   5982   5985   5988     1  0.0000000  0.6508444  3
   5984   5982   5985   5986     1  0.0000000  0.6508444  3
   5984   5982   5985   5987     1  0.0000000  0.6508444  3
   5984   5982   5979   6009     1  0.0000000  1.0460000  1
   5984   5982   5979   6009     1  0.0000000  0.0000000  3
   5985   5988   5989   5990     1  0.0000000  1.2552000  3
   5985   5988   5989   5991     1  0.0000000  1.2552000  3
   5985   5988   5999   6000     1  0.0000000  1.2552000  3
   5985   5988   5999   6001     1  0.0000000  1.2552000  3
   5986   5985   5988   5989     1  0.0000000  1.2552000  3
   5986   5985   5988   5999     1  0.0000000  1.2552000  3
   5987   5985   5988   5989     1  0.0000000  1.2552000  3
   5987   5985   5988   5999     1  0.0000000  1.2552000  3
   5988   5989   5992   5993     1  0.0000000  0.6508444  3
   5988   5989   5992   5994     1  0.0000000  0.6508444  3
   5988   5999   6002   6003     1  0.0000000  0.6508444  3
   5988   5999   6002   6004     1  0.0000000  0.6508444  3
   5989   5988   5999   6000     1  0.0000000  1.2552000  3
   5989   5988   5999   6001     1  0.0000000  1.2552000  3
   5990   5989   5992   5995     1  0.0000000  0.6508444  3
   5990   5989   5992   5993     1  0.0000000  0.6508444  3
   5990   5989   5992   5994     1  0.0000000  0.6508444  3
   5990   5989   5988   5999     1  0.0000000  1.2552000  3
   5991   5989   5992   5995     1  0.0000000  0.6508444  3
   5991   5989   5992   5993     1  0.0000000  0.6508444  3
   5991   5989   5992   5994     1  0.0000000  0.6508444  3
   5991   5989   5988   5999     1  0.0000000  1.2552000  3
   5992   5995   5997   5998     1  180.0000771  9.6232000  2
   5993   5992   5995   5996     1  0.0000000  3.3472000  1
   5993   5992   5995   5996     1  0.0000000  0.0000000  2
   5993   5992   5995   5996     1  180.0000771  0.3347200  3
   5993   5992   5995   5997     1  180.0000771  0.0000000  2
   5994   5992   5995   5996     1  0.0000000  3.3472000  1
   5994   5992   5995   5996     1  0.0000000  0.0000000  2
   5994   5992   5995   5996     1  180.0000771  0.3347200  3
   5994   5992   5995   5997     1  180.0000771  0.0000000  2
   5996   5995   5997   5998     1  0.0000000  7.9496000  1
   5996   5995   5997   5998     1  180.0000771  9.6232000  2
   6000   5999   6002   6005     1  0.0000000  0.6508444  3
   6000   5999   6002   6003     1  0.0000000  0.6508444  3
   6000   5999   6002   6004     1  0.0000000  0.6508444  3
   6001   5999   6002   6005     1  0.0000000  0.6508444  3
   6001   5999   6002   6003     1  0.0000000  0.6508444  3
   6001   5999   6002   6004     1  0.0000000  0.6508444  3
   6002   6005   6007   6008     1  180.0000771  9.6232000  2
   6003   6002   6005   6006     1  0.0000000  3.3472000  1
   6003   6002   6005   6006     1  0.0000000  0.0000000  2
   6003   6002   6005   6006     1  180.0000771  0.3347200  3
   6003   6002   6005   6007     1  180.0000771  0.0000000  2
   6004   6002   6005   6006     1  0.0000000  3.3472000  1
   6004   6002   6005   6006     1  0.0000000  0.0000000  2
   6004   6002   6005   6006     1  180.0000771  0.3347200  3
   6004   6002   6005   6007     1  180.0000771  0.0000000  2
   6006   6005   6007   6008     1  0.0000000  7.9496000  1
   6006   6005   6007   6008     1  180.0000771  9.6232000  2
   6010   6013   6016   6017     1  0.0000000  0.6508444  3
   6010   6013   6016   6018     1  0.0000000  0.6508444  3
   6011   6010   6013   6016     1  0.0000000  0.6508444  3
   6011   6010   6013   6014     1  0.0000000  0.6508444  3
   6011   6010   6013   6015     1  0.0000000  0.6508444  3
   6012   6010   6013   6016     1  0.0000000  0.6508444  3
   6012   6010   6013   6014     1  0.0000000  0.6508444  3
   6012   6010   6013   6015     1  0.0000000  0.6508444  3
   6014   6013   6010   6040     1  0.0000000  1.0460000  1
   6014   6013   6010   6040     1  0.0000000  0.0000000  3
   6014   6013   6016   6019     1  0.0000000  0.6508444  3
   6014   6013   6016   6017     1  0.0000000  0.6508444  3
   6014   6013   6016   6018     1  0.0000000  0.6508444  3
   6015   6013   6010   6040     1  0.0000000  1.0460000  1
   6015   6013   6010   6040     1  0.0000000  0.0000000  3
   6015   6013   6016   6019     1  0.0000000  0.6508444  3
   6015   6013   6016   6017     1  0.0000000  0.6508444  3
   6015   6013   6016   6018     1  0.0000000  0.6508444  3
   6016   6019   6020   6021     1  0.0000000  1.2552000  3
   6016   6019   6020   6022     1  0.0000000  1.2552000  3
   6016   6019   6030   6031     1  0.0000000  1.2552000  3
   6016   6019   6030   6032     1  0.0000000  1.2552000  3
   6017   6016   6019   6020     1  0.0000000  1.2552000  3
   6017   6016   6019   6030     1  0.0000000  1.2552000  3
   6018   6016   6019   6020     1  0.0000000  1.2552000  3
   6018   6016   6019   6030     1  0.0000000  1.2552000  3
   6019   6020   6023   6024     1  0.0000000  0.6508444  3
   6019   6020   6023   6025     1  0.0000000  0.6508444  3
   6019   6030   6033   6034     1  0.0000000  0.6508444  3
   6019   6030   6033   6035     1  0.0000000  0.6508444  3
   6020   6019   6030   6031     1  0.0000000  1.2552000  3
   6020   6019   6030   6032     1  0.0000000  1.2552000  3
   6021   6020   6019   6030     1  0.0000000  1.2552000  3
   6021   6020   6023   6026     1  0.0000000  0.6508444  3
   6021   6020   6023   6024     1  0.0000000  0.6508444  3
   6021   6020   6023   6025     1  0.0000000  0.6508444  3
   6022   6020   6019   6030     1  0.0000000  1.2552000  3
   6022   6020   6023   6026     1  0.0000000  0.6508444  3
   6022   6020   6023   6024     1  0.0000000  0.6508444  3
   6022   6020   6023   6025     1  0.0000000  0.6508444  3
   6023   6026   6028   6029     1  180.0000771  9.6232000  2
   6024   6023   6026   6027     1  0.0000000  3.3472000  1
   6024   6023   6026   6027     1  0.0000000  0.0000000  2
   6024   6023   6026   6027     1  180.0000771  0.3347200  3
   6024   6023   6026   6028     1  180.0000771  0.0000000  2
   6025   6023   6026   6027     1  0.0000000  3.3472000  1
   6025   6023   6026   6027     1  0.0000000  0.0000000  2
   6025   6023   6026   6027     1  180.0000771  0.3347200  3
   6025   6023   6026   6028     1  180.0000771  0.0000000  2
   6027   6026   6028   6029     1  0.0000000  7.9496000  1
   6027   6026   6028   6029     1  180.0000771  9.6232000  2
   6031   6030   6033   6036     1  0.0000000  0.6508444  3
   6031   6030   6033   6034     1  0.0000000  0.6508444  3
   6031   6030   6033   6035     1  0.0000000  0.6508444  3
   6032   6030   6033   6036     1  0.0000000  0.6508444  3
   6032   6030   6033   6034     1  0.0000000  0.6508444  3
   6032   6030   6033   6035     1  0.0000000  0.6508444  3
   6033   6036   6038   6039     1  180.0000771  9.6232000  2
   6034   6033   6036   6037     1  0.0000000  3.3472000  1
   6034   6033   6036   6037     1  0.0000000  0.0000000  2
   6034   6033   6036   6037     1  180.0000771  0.3347200  3
   6034   6033   6036   6038     1  180.0000771  0.0000000  2
   6035   6033   6036   6037     1  0.0000000  3.3472000  1
   6035   6033   6036   6037     1  0.0000000  0.0000000  2
   6035   6033   6036   6037     1  180.0000771  0.3347200  3
   6035   6033   6036   6038     1  180.0000771  0.0000000  2
   6037   6036   6038   6039     1  0.0000000  7.9496000  1
   6037   6036   6038   6039     1  180.0000771  9.6232000  2
   6041   6044   6047   6048     1  0.0000000  0.6508444  3
   6041   6044   6047   6049     1  0.0000000  0.6508444  3
   6042   6041   6044   6047     1  0.0000000  0.6508444  3
   6042   6041   6044   6045     1  0.0000000  0.6508444  3
   6042   6041   6044   6046     1  0.0000000  0.6508444  3
   6043   6041   6044   6047     1  0.0000000  0.6508444  3
   6043   6041   6044   6045     1  0.0000000  0.6508444  3
   6043   6041   6044   6046     1  0.0000000  0.6508444  3
   6045   6044   6047   6050     1  0.0000000  0.6508444  3
   6045   6044   6047   6048     1  0.0000000  0.6508444  3
   6045   6044   6047   6049     1  0.0000000  0.6508444  3
   6045   6044   6041   6071     1  0.0000000  1.0460000  1
   6045   6044   6041   6071     1  0.0000000  0.0000000  3
   6046   6044   6047   6050     1  0.0000000  0.6508444  3
   6046   6044   6047   6048     1  0.0000000  0.6508444  3
   6046   6044   6047   6049     1  0.0000000  0.6508444  3
   6046   6044   6041   6071     1  0.0000000  1.0460000  1
   6046   6044   6041   6071     1  0.0000000  0.0000000  3
   6047   6050   6051   6052     1  0.0000000  1.2552000  3
   6047   6050   6051   6053     1  0.0000000  1.2552000  3
   6047   6050   6061   6062     1  0.0000000  1.2552000  3
   6047   6050   6061   6063     1  0.0000000  1.2552000  3
   6048   6047   6050   6051     1  0.0000000  1.2552000  3
   6048   6047   6050   6061     1  0.0000000  1.2552000  3
   6049   6047   6050   6051     1  0.0000000  1.2552000  3
   6049   6047   6050   6061     1  0.0000000  1.2552000  3
   6050   6051   6054   6055     1  0.0000000  0.6508444  3
   6050   6051   6054   6056     1  0.0000000  0.6508444  3
   6050   6061   6064   6065     1  0.0000000  0.6508444  3
   6050   6061   6064   6066     1  0.0000000  0.6508444  3
   6051   6050   6061   6062     1  0.0000000  1.2552000  3
   6051   6050   6061   6063     1  0.0000000  1.2552000  3
   6052   6051   6054   6057     1  0.0000000  0.6508444  3
   6052   6051   6054   6055     1  0.0000000  0.6508444  3
   6052   6051   6054   6056     1  0.0000000  0.6508444  3
   6052   6051   6050   6061     1  0.0000000  1.2552000  3
   6053   6051   6054   6057     1  0.0000000  0.6508444  3
   6053   6051   6054   6055     1  0.0000000  0.6508444  3
   6053   6051   6054   6056     1  0.0000000  0.6508444  3
   6053   6051   6050   6061     1  0.0000000  1.2552000  3
   6054   6057   6059   6060     1  180.0000771  9.6232000  2
   6055   6054   6057   6058     1  0.0000000  3.3472000  1
   6055   6054   6057   6058     1  0.0000000  0.0000000  2
   6055   6054   6057   6058     1  180.0000771  0.3347200  3
   6055   6054   6057   6059     1  180.0000771  0.0000000  2
   6056   6054   6057   6058     1  0.0000000  3.3472000  1
   6056   6054   6057   6058     1  0.0000000  0.0000000  2
   6056   6054   6057   6058     1  180.0000771  0.3347200  3
   6056   6054   6057   6059     1  180.0000771  0.0000000  2
   6058   6057   6059   6060     1  0.0000000  7.9496000  1
   6058   6057   6059   6060     1  180.0000771  9.6232000  2
   6062   6061   6064   6067     1  0.0000000  0.6508444  3
   6062   6061   6064   6065     1  0.0000000  0.6508444  3
   6062   6061   6064   6066     1  0.0000000  0.6508444  3
   6063   6061   6064   6067     1  0.0000000  0.6508444  3
   6063   6061   6064   6065     1  0.0000000  0.6508444  3
   6063   6061   6064   6066     1  0.0000000  0.6508444  3
   6064   6067   6069   6070     1  180.0000771  9.6232000  2
   6065   6064   6067   6068     1  0.0000000  3.3472000  1
   6065   6064   6067   6068     1  0.0000000  0.0000000  2
   6065   6064   6067   6068     1  180.0000771  0.3347200  3
   6065   6064   6067   6069     1  180.0000771  0.0000000  2
   6066   6064   6067   6068     1  0.0000000  3.3472000  1
   6066   6064   6067   6068     1  0.0000000  0.0000000  2
   6066   6064   6067   6068     1  180.0000771  0.3347200  3
   6066   6064   6067   6069     1  180.0000771  0.0000000  2
   6068   6067   6069   6070     1  0.0000000  7.9496000  1
   6068   6067   6069   6070     1  180.0000771  9.6232000  2
   6072   6075   6078   6079     1  0.0000000  0.6508444  3
   6072   6075   6078   6080     1  0.0000000  0.6508444  3
   6073   6072   6075   6078     1  0.0000000  0.6508444  3
   6073   6072   6075   6076     1  0.0000000  0.6508444  3
   6073   6072   6075   6077     1  0.0000000  0.6508444  3
   6074   6072   6075   6078     1  0.0000000  0.6508444  3
   6074   6072   6075   6076     1  0.0000000  0.6508444  3
   6074   6072   6075   6077     1  0.0000000  0.6508444  3
   6076   6075   6072   6102     1  0.0000000  1.0460000  1
   6076   6075   6072   6102     1  0.0000000  0.0000000  3
   6076   6075   6078   6081     1  0.0000000  0.6508444  3
   6076   6075   6078   6079     1  0.0000000  0.6508444  3
   6076   6075   6078   6080     1  0.0000000  0.6508444  3
   6077   6075   6072   6102     1  0.0000000  1.0460000  1
   6077   6075   6072   6102     1  0.0000000  0.0000000  3
   6077   6075   6078   6081     1  0.0000000  0.6508444  3
   6077   6075   6078   6079     1  0.0000000  0.6508444  3
   6077   6075   6078   6080     1  0.0000000  0.6508444  3
   6078   6081   6082   6083     1  0.0000000  1.2552000  3
   6078   6081   6082   6084     1  0.0000000  1.2552000  3
   6078   6081   6092   6093     1  0.0000000  1.2552000  3
   6078   6081   6092   6094     1  0.0000000  1.2552000  3
   6079   6078   6081   6082     1  0.0000000  1.2552000  3
   6079   6078   6081   6092     1  0.0000000  1.2552000  3
   6080   6078   6081   6082     1  0.0000000  1.2552000  3
   6080   6078   6081   6092     1  0.0000000  1.2552000  3
   6081   6082   6085   6086     1  0.0000000  0.6508444  3
   6081   6082   6085   6087     1  0.0000000  0.6508444  3
   6081   6092   6095   6096     1  0.0000000  0.6508444  3
   6081   6092   6095   6097     1  0.0000000  0.6508444  3
   6082   6081   6092   6093     1  0.0000000  1.2552000  3
   6082   6081   6092   6094     1  0.0000000  1.2552000  3
   6083   6082   6081   6092     1  0.0000000  1.2552000  3
   6083   6082   6085   6088     1  0.0000000  0.6508444  3
   6083   6082   6085   6086     1  0.0000000  0.6508444  3
   6083   6082   6085   6087     1  0.0000000  0.6508444  3
   6084   6082   6081   6092     1  0.0000000  1.2552000  3
   6084   6082   6085   6088     1  0.0000000  0.6508444  3
   6084   6082   6085   6086     1  0.0000000  0.6508444  3
   6084   6082   6085   6087     1  0.0000000  0.6508444  3
   6085   6088   6090   6091     1  180.0000771  9.6232000  2
   6086   6085   6088   6089     1  0.0000000  3.3472000  1
   6086   6085   6088   6089     1  0.0000000  0.0000000  2
   6086   6085   6088   6089     1  180.0000771  0.3347200  3
   6086   6085   6088   6090     1  180.0000771  0.0000000  2
   6087   6085   6088   6089     1  0.0000000  3.3472000  1
   6087   6085   6088   6089     1  0.0000000  0.0000000  2
   6087   6085   6088   6089     1  180.0000771  0.3347200  3
   6087   6085   6088   6090     1  180.0000771  0.0000000  2
   6089   6088   6090   6091     1  0.0000000  7.9496000  1
   6089   6088   6090   6091     1  180.0000771  9.6232000  2
   6093   6092   6095   6098     1  0.0000000  0.6508444  3
   6093   6092   6095   6096     1  0.0000000  0.6508444  3
   6093   6092   6095   6097     1  0.0000000  0.6508444  3
   6094   6092   6095   6098     1  0.0000000  0.6508444  3
   6094   6092   6095   6096     1  0.0000000  0.6508444  3
   6094   6092   6095   6097     1  0.0000000  0.6508444  3
   6095   6098   6100   6101     1  180.0000771  9.6232000  2
   6096   6095   6098   6099     1  0.0000000  3.3472000  1
   6096   6095   6098   6099     1  0.0000000  0.0000000  2
   6096   6095   6098   6099     1  180.0000771  0.3347200  3
   6096   6095   6098   6100     1  180.0000771  0.0000000  2
   6097   6095   6098   6099     1  0.0000000  3.3472000  1
   6097   6095   6098   6099     1  0.0000000  0.0000000  2
   6097   6095   6098   6099     1  180.0000771  0.3347200  3
   6097   6095   6098   6100     1  180.0000771  0.0000000  2
   6099   6098   6100   6101     1  0.0000000  7.9496000  1
   6099   6098   6100   6101     1  180.0000771  9.6232000  2
   6103   6106   6109   6110     1  0.0000000  0.6508444  3
   6103   6106   6109   6111     1  0.0000000  0.6508444  3
   6104   6103   6106   6109     1  0.0000000  0.6508444  3
   6104   6103   6106   6107     1  0.0000000  0.6508444  3
   6104   6103   6106   6108     1  0.0000000  0.6508444  3
   6105   6103   6106   6109     1  0.0000000  0.6508444  3
   6105   6103   6106   6107     1  0.0000000  0.6508444  3
   6105   6103   6106   6108     1  0.0000000  0.6508444  3
   6107   6106   6109   6112     1  0.0000000  0.6508444  3
   6107   6106   6109   6110     1  0.0000000  0.6508444  3
   6107   6106   6109   6111     1  0.0000000  0.6508444  3
   6107   6106   6103   6133     1  0.0000000  1.0460000  1
   6107   6106   6103   6133     1  0.0000000  0.0000000  3
   6108   6106   6109   6112     1  0.0000000  0.6508444  3
   6108   6106   6109   6110     1  0.0000000  0.6508444  3
   6108   6106   6109   6111     1  0.0000000  0.6508444  3
   6108   6106   6103   6133     1  0.0000000  1.0460000  1
   6108   6106   6103   6133     1  0.0000000  0.0000000  3
   6109   6112   6113   6114     1  0.0000000  1.2552000  3
   6109   6112   6113   6115     1  0.0000000  1.2552000  3
   6109   6112   6123   6124     1  0.0000000  1.2552000  3
   6109   6112   6123   6125     1  0.0000000  1.2552000  3
   6110   6109   6112   6113     1  0.0000000  1.2552000  3
   6110   6109   6112   6123     1  0.0000000  1.2552000  3
   6111   6109   6112   6113     1  0.0000000  1.2552000  3
   6111   6109   6112   6123     1  0.0000000  1.2552000  3
   6112   6113   6116   6117     1  0.0000000  0.6508444  3
   6112   6113   6116   6118     1  0.0000000  0.6508444  3
   6112   6123   6126   6127     1  0.0000000  0.6508444  3
   6112   6123   6126   6128     1  0.0000000  0.6508444  3
   6113   6112   6123   6124     1  0.0000000  1.2552000  3
   6113   6112   6123   6125     1  0.0000000  1.2552000  3
   6114   6113   6116   6119     1  0.0000000  0.6508444  3
   6114   6113   6116   6117     1  0.0000000  0.6508444  3
   6114   6113   6116   6118     1  0.0000000  0.6508444  3
   6114   6113   6112   6123     1  0.0000000  1.2552000  3
   6115   6113   6116   6119     1  0.0000000  0.6508444  3
   6115   6113   6116   6117     1  0.0000000  0.6508444  3
   6115   6113   6116   6118     1  0.0000000  0.6508444  3
   6115   6113   6112   6123     1  0.0000000  1.2552000  3
   6116   6119   6121   6122     1  180.0000771  9.6232000  2
   6117   6116   6119   6120     1  0.0000000  3.3472000  1
   6117   6116   6119   6120     1  0.0000000  0.0000000  2
   6117   6116   6119   6120     1  180.0000771  0.3347200  3
   6117   6116   6119   6121     1  180.0000771  0.0000000  2
   6118   6116   6119   6120     1  0.0000000  3.3472000  1
   6118   6116   6119   6120     1  0.0000000  0.0000000  2
   6118   6116   6119   6120     1  180.0000771  0.3347200  3
   6118   6116   6119   6121     1  180.0000771  0.0000000  2
   6120   6119   6121   6122     1  0.0000000  7.9496000  1
   6120   6119   6121   6122     1  180.0000771  9.6232000  2
   6124   6123   6126   6129     1  0.0000000  0.6508444  3
   6124   6123   6126   6127     1  0.0000000  0.6508444  3
   6124   6123   6126   6128     1  0.0000000  0.6508444  3
   6125   6123   6126   6129     1  0.0000000  0.6508444  3
   6125   6123   6126   6127     1  0.0000000  0.6508444  3
   6125   6123   6126   6128     1  0.0000000  0.6508444  3
   6126   6129   6131   6132     1  180.0000771  9.6232000  2
   6127   6126   6129   6130     1  0.0000000  3.3472000  1
   6127   6126   6129   6130     1  0.0000000  0.0000000  2
   6127   6126   6129   6130     1  180.0000771  0.3347200  3
   6127   6126   6129   6131     1  180.0000771  0.0000000  2
   6128   6126   6129   6130     1  0.0000000  3.3472000  1
   6128   6126   6129   6130     1  0.0000000  0.0000000  2
   6128   6126   6129   6130     1  180.0000771  0.3347200  3
   6128   6126   6129   6131     1  180.0000771  0.0000000  2
   6130   6129   6131   6132     1  0.0000000  7.9496000  1
   6130   6129   6131   6132     1  180.0000771  9.6232000  2
   6134   6137   6140   6141     1  0.0000000  0.6508444  3
   6134   6137   6140   6142     1  0.0000000  0.6508444  3
   6135   6134   6137   6140     1  0.0000000  0.6508444  3
   6135   6134   6137   6138     1  0.0000000  0.6508444  3
   6135   6134   6137   6139     1  0.0000000  0.6508444  3
   6136   6134   6137   6140     1  0.0000000  0.6508444  3
   6136   6134   6137   6138     1  0.0000000  0.6508444  3
   6136   6134   6137   6139     1  0.0000000  0.6508444  3
   6138   6137   6134   6164     1  0.0000000  1.0460000  1
   6138   6137   6134   6164     1  0.0000000  0.0000000  3
   6138   6137   6140   6143     1  0.0000000  0.6508444  3
   6138   6137   6140   6141     1  0.0000000  0.6508444  3
   6138   6137   6140   6142     1  0.0000000  0.6508444  3
   6139   6137   6134   6164     1  0.0000000  1.0460000  1
   6139   6137   6134   6164     1  0.0000000  0.0000000  3
   6139   6137   6140   6143     1  0.0000000  0.6508444  3
   6139   6137   6140   6141     1  0.0000000  0.6508444  3
   6139   6137   6140   6142     1  0.0000000  0.6508444  3
   6140   6143   6144   6145     1  0.0000000  1.2552000  3
   6140   6143   6144   6146     1  0.0000000  1.2552000  3
   6140   6143   6154   6155     1  0.0000000  1.2552000  3
   6140   6143   6154   6156     1  0.0000000  1.2552000  3
   6141   6140   6143   6144     1  0.0000000  1.2552000  3
   6141   6140   6143   6154     1  0.0000000  1.2552000  3
   6142   6140   6143   6144     1  0.0000000  1.2552000  3
   6142   6140   6143   6154     1  0.0000000  1.2552000  3
   6143   6144   6147   6148     1  0.0000000  0.6508444  3
   6143   6144   6147   6149     1  0.0000000  0.6508444  3
   6143   6154   6157   6158     1  0.0000000  0.6508444  3
   6143   6154   6157   6159     1  0.0000000  0.6508444  3
   6144   6143   6154   6155     1  0.0000000  1.2552000  3
   6144   6143   6154   6156     1  0.0000000  1.2552000  3
   6145   6144   6143   6154     1  0.0000000  1.2552000  3
   6145   6144   6147   6150     1  0.0000000  0.6508444  3
   6145   6144   6147   6148     1  0.0000000  0.6508444  3
   6145   6144   6147   6149     1  0.0000000  0.6508444  3
   6146   6144   6143   6154     1  0.0000000  1.2552000  3
   6146   6144   6147   6150     1  0.0000000  0.6508444  3
   6146   6144   6147   6148     1  0.0000000  0.6508444  3
   6146   6144   6147   6149     1  0.0000000  0.6508444  3
   6147   6150   6152   6153     1  180.0000771  9.6232000  2
   6148   6147   6150   6151     1  0.0000000  3.3472000  1
   6148   6147   6150   6151     1  0.0000000  0.0000000  2
   6148   6147   6150   6151     1  180.0000771  0.3347200  3
   6148   6147   6150   6152     1  180.0000771  0.0000000  2
   6149   6147   6150   6151     1  0.0000000  3.3472000  1
   6149   6147   6150   6151     1  0.0000000  0.0000000  2
   6149   6147   6150   6151     1  180.0000771  0.3347200  3
   6149   6147   6150   6152     1  180.0000771  0.0000000  2
   6151   6150   6152   6153     1  0.0000000  7.9496000  1
   6151   6150   6152   6153     1  180.0000771  9.6232000  2
   6155   6154   6157   6160     1  0.0000000  0.6508444  3
   6155   6154   6157   6158     1  0.0000000  0.6508444  3
   6155   6154   6157   6159     1  0.0000000  0.6508444  3
   6156   6154   6157   6160     1  0.0000000  0.6508444  3
   6156   6154   6157   6158     1  0.0000000  0.6508444  3
   6156   6154   6157   6159     1  0.0000000  0.6508444  3
   6157   6160   6162   6163     1  180.0000771  9.6232000  2
   6158   6157   6160   6161     1  0.0000000  3.3472000  1
   6158   6157   6160   6161     1  0.0000000  0.0000000  2
   6158   6157   6160   6161     1  180.0000771  0.3347200  3
   6158   6157   6160   6162     1  180.0000771  0.0000000  2
   6159   6157   6160   6161     1  0.0000000  3.3472000  1
   6159   6157   6160   6161     1  0.0000000  0.0000000  2
   6159   6157   6160   6161     1  180.0000771  0.3347200  3
   6159   6157   6160   6162     1  180.0000771  0.0000000  2
   6161   6160   6162   6163     1  0.0000000  7.9496000  1
   6161   6160   6162   6163     1  180.0000771  9.6232000  2
   6165   6168   6171   6172     1  0.0000000  0.6508444  3
   6165   6168   6171   6173     1  0.0000000  0.6508444  3
   6166   6165   6168   6171     1  0.0000000  0.6508444  3
   6166   6165   6168   6169     1  0.0000000  0.6508444  3
   6166   6165   6168   6170     1  0.0000000  0.6508444  3
   6167   6165   6168   6171     1  0.0000000  0.6508444  3
   6167   6165   6168   6169     1  0.0000000  0.6508444  3
   6167   6165   6168   6170     1  0.0000000  0.6508444  3
   6169   6168   6171   6174     1  0.0000000  0.6508444  3
   6169   6168   6171   6172     1  0.0000000  0.6508444  3
   6169   6168   6171   6173     1  0.0000000  0.6508444  3
   6169   6168   6165   6195     1  0.0000000  1.0460000  1
   6169   6168   6165   6195     1  0.0000000  0.0000000  3
   6170   6168   6171   6174     1  0.0000000  0.6508444  3
   6170   6168   6171   6172     1  0.0000000  0.6508444  3
   6170   6168   6171   6173     1  0.0000000  0.6508444  3
   6170   6168   6165   6195     1  0.0000000  1.0460000  1
   6170   6168   6165   6195     1  0.0000000  0.0000000  3
   6171   6174   6175   6176     1  0.0000000  1.2552000  3
   6171   6174   6175   6177     1  0.0000000  1.2552000  3
   6171   6174   6185   6186     1  0.0000000  1.2552000  3
   6171   6174   6185   6187     1  0.0000000  1.2552000  3
   6172   6171   6174   6175     1  0.0000000  1.2552000  3
   6172   6171   6174   6185     1  0.0000000  1.2552000  3
   6173   6171   6174   6175     1  0.0000000  1.2552000  3
   6173   6171   6174   6185     1  0.0000000  1.2552000  3
   6174   6175   6178   6179     1  0.0000000  0.6508444  3
   6174   6175   6178   6180     1  0.0000000  0.6508444  3
   6174   6185   6188   6189     1  0.0000000  0.6508444  3
   6174   6185   6188   6190     1  0.0000000  0.6508444  3
   6175   6174   6185   6186     1  0.0000000  1.2552000  3
   6175   6174   6185   6187     1  0.0000000  1.2552000  3
   6176   6175   6178   6181     1  0.0000000  0.6508444  3
   6176   6175   6178   6179     1  0.0000000  0.6508444  3
   6176   6175   6178   6180     1  0.0000000  0.6508444  3
   6176   6175   6174   6185     1  0.0000000  1.2552000  3
   6177   6175   6178   6181     1  0.0000000  0.6508444  3
   6177   6175   6178   6179     1  0.0000000  0.6508444  3
   6177   6175   6178   6180     1  0.0000000  0.6508444  3
   6177   6175   6174   6185     1  0.0000000  1.2552000  3
   6178   6181   6183   6184     1  180.0000771  9.6232000  2
   6179   6178   6181   6182     1  0.0000000  3.3472000  1
   6179   6178   6181   6182     1  0.0000000  0.0000000  2
   6179   6178   6181   6182     1  180.0000771  0.3347200  3
   6179   6178   6181   6183     1  180.0000771  0.0000000  2
   6180   6178   6181   6182     1  0.0000000  3.3472000  1
   6180   6178   6181   6182     1  0.0000000  0.0000000  2
   6180   6178   6181   6182     1  180.0000771  0.3347200  3
   6180   6178   6181   6183     1  180.0000771  0.0000000  2
   6182   6181   6183   6184     1  0.0000000  7.9496000  1
   6182   6181   6183   6184     1  180.0000771  9.6232000  2
   6186   6185   6188   6191     1  0.0000000  0.6508444  3
   6186   6185   6188   6189     1  0.0000000  0.6508444  3
   6186   6185   6188   6190     1  0.0000000  0.6508444  3
   6187   6185   6188   6191     1  0.0000000  0.6508444  3
   6187   6185   6188   6189     1  0.0000000  0.6508444  3
   6187   6185   6188   6190     1  0.0000000  0.6508444  3
   6188   6191   6193   6194     1  180.0000771  9.6232000  2
   6189   6188   6191   6192     1  0.0000000  3.3472000  1
   6189   6188   6191   6192     1  0.0000000  0.0000000  2
   6189   6188   6191   6192     1  180.0000771  0.3347200  3
   6189   6188   6191   6193     1  180.0000771  0.0000000  2
   6190   6188   6191   6192     1  0.0000000  3.3472000  1
   6190   6188   6191   6192     1  0.0000000  0.0000000  2
   6190   6188   6191   6192     1  180.0000771  0.3347200  3
   6190   6188   6191   6193     1  180.0000771  0.0000000  2
   6192   6191   6193   6194     1  0.0000000  7.9496000  1
   6192   6191   6193   6194     1  180.0000771  9.6232000  2
   6196   6199   6202   6203     1  0.0000000  0.6508444  3
   6196   6199   6202   6204     1  0.0000000  0.6508444  3
   6197   6196   6199   6202     1  0.0000000  0.6508444  3
   6197   6196   6199   6200     1  0.0000000  0.6508444  3
   6197   6196   6199   6201     1  0.0000000  0.6508444  3
   6198   6196   6199   6202     1  0.0000000  0.6508444  3
   6198   6196   6199   6200     1  0.0000000  0.6508444  3
   6198   6196   6199   6201     1  0.0000000  0.6508444  3
   6200   6199   6196   6226     1  0.0000000  1.0460000  1
   6200   6199   6196   6226     1  0.0000000  0.0000000  3
   6200   6199   6202   6205     1  0.0000000  0.6508444  3
   6200   6199   6202   6203     1  0.0000000  0.6508444  3
   6200   6199   6202   6204     1  0.0000000  0.6508444  3
   6201   6199   6196   6226     1  0.0000000  1.0460000  1
   6201   6199   6196   6226     1  0.0000000  0.0000000  3
   6201   6199   6202   6205     1  0.0000000  0.6508444  3
   6201   6199   6202   6203     1  0.0000000  0.6508444  3
   6201   6199   6202   6204     1  0.0000000  0.6508444  3
   6202   6205   6206   6207     1  0.0000000  1.2552000  3
   6202   6205   6206   6208     1  0.0000000  1.2552000  3
   6202   6205   6216   6217     1  0.0000000  1.2552000  3
   6202   6205   6216   6218     1  0.0000000  1.2552000  3
   6203   6202   6205   6206     1  0.0000000  1.2552000  3
   6203   6202   6205   6216     1  0.0000000  1.2552000  3
   6204   6202   6205   6206     1  0.0000000  1.2552000  3
   6204   6202   6205   6216     1  0.0000000  1.2552000  3
   6205   6206   6209   6210     1  0.0000000  0.6508444  3
   6205   6206   6209   6211     1  0.0000000  0.6508444  3
   6205   6216   6219   6220     1  0.0000000  0.6508444  3
   6205   6216   6219   6221     1  0.0000000  0.6508444  3
   6206   6205   6216   6217     1  0.0000000  1.2552000  3
   6206   6205   6216   6218     1  0.0000000  1.2552000  3
   6207   6206   6205   6216     1  0.0000000  1.2552000  3
   6207   6206   6209   6212     1  0.0000000  0.6508444  3
   6207   6206   6209   6210     1  0.0000000  0.6508444  3
   6207   6206   6209   6211     1  0.0000000  0.6508444  3
   6208   6206   6205   6216     1  0.0000000  1.2552000  3
   6208   6206   6209   6212     1  0.0000000  0.6508444  3
   6208   6206   6209   6210     1  0.0000000  0.6508444  3
   6208   6206   6209   6211     1  0.0000000  0.6508444  3
   6209   6212   6214   6215     1  180.0000771  9.6232000  2
   6210   6209   6212   6213     1  0.0000000  3.3472000  1
   6210   6209   6212   6213     1  0.0000000  0.0000000  2
   6210   6209   6212   6213     1  180.0000771  0.3347200  3
   6210   6209   6212   6214     1  180.0000771  0.0000000  2
   6211   6209   6212   6213     1  0.0000000  3.3472000  1
   6211   6209   6212   6213     1  0.0000000  0.0000000  2
   6211   6209   6212   6213     1  180.0000771  0.3347200  3
   6211   6209   6212   6214     1  180.0000771  0.0000000  2
   6213   6212   6214   6215     1  0.0000000  7.9496000  1
   6213   6212   6214   6215     1  180.0000771  9.6232000  2
   6217   6216   6219   6222     1  0.0000000  0.6508444  3
   6217   6216   6219   6220     1  0.0000000  0.6508444  3
   6217   6216   6219   6221     1  0.0000000  0.6508444  3
   6218   6216   6219   6222     1  0.0000000  0.6508444  3
   6218   6216   6219   6220     1  0.0000000  0.6508444  3
   6218   6216   6219   6221     1  0.0000000  0.6508444  3
   6219   6222   6224   6225     1  180.0000771  9.6232000  2
   6220   6219   6222   6223     1  0.0000000  3.3472000  1
   6220   6219   6222   6223     1  0.0000000  0.0000000  2
   6220   6219   6222   6223     1  180.0000771  0.3347200  3
   6220   6219   6222   6224     1  180.0000771  0.0000000  2
   6221   6219   6222   6223     1  0.0000000  3.3472000  1
   6221   6219   6222   6223     1  0.0000000  0.0000000  2
   6221   6219   6222   6223     1  180.0000771  0.3347200  3
   6221   6219   6222   6224     1  180.0000771  0.0000000  2
   6223   6222   6224   6225     1  0.0000000  7.9496000  1
   6223   6222   6224   6225     1  180.0000771  9.6232000  2
   6227   6230   6233   6234     1  0.0000000  0.6508444  3
   6227   6230   6233   6235     1  0.0000000  0.6508444  3
   6228   6227   6230   6233     1  0.0000000  0.6508444  3
   6228   6227   6230   6231     1  0.0000000  0.6508444  3
   6228   6227   6230   6232     1  0.0000000  0.6508444  3
   6229   6227   6230   6233     1  0.0000000  0.6508444  3
   6229   6227   6230   6231     1  0.0000000  0.6508444  3
   6229   6227   6230   6232     1  0.0000000  0.6508444  3
   6231   6230   6233   6236     1  0.0000000  0.6508444  3
   6231   6230   6233   6234     1  0.0000000  0.6508444  3
   6231   6230   6233   6235     1  0.0000000  0.6508444  3
   6231   6230   6227   6257     1  0.0000000  1.0460000  1
   6231   6230   6227   6257     1  0.0000000  0.0000000  3
   6232   6230   6233   6236     1  0.0000000  0.6508444  3
   6232   6230   6233   6234     1  0.0000000  0.6508444  3
   6232   6230   6233   6235     1  0.0000000  0.6508444  3
   6232   6230   6227   6257     1  0.0000000  1.0460000  1
   6232   6230   6227   6257     1  0.0000000  0.0000000  3
   6233   6236   6237   6238     1  0.0000000  1.2552000  3
   6233   6236   6237   6239     1  0.0000000  1.2552000  3
   6233   6236   6247   6248     1  0.0000000  1.2552000  3
   6233   6236   6247   6249     1  0.0000000  1.2552000  3
   6234   6233   6236   6237     1  0.0000000  1.2552000  3
   6234   6233   6236   6247     1  0.0000000  1.2552000  3
   6235   6233   6236   6237     1  0.0000000  1.2552000  3
   6235   6233   6236   6247     1  0.0000000  1.2552000  3
   6236   6237   6240   6241     1  0.0000000  0.6508444  3
   6236   6237   6240   6242     1  0.0000000  0.6508444  3
   6236   6247   6250   6251     1  0.0000000  0.6508444  3
   6236   6247   6250   6252     1  0.0000000  0.6508444  3
   6237   6236   6247   6248     1  0.0000000  1.2552000  3
   6237   6236   6247   6249     1  0.0000000  1.2552000  3
   6238   6237   6240   6243     1  0.0000000  0.6508444  3
   6238   6237   6240   6241     1  0.0000000  0.6508444  3
   6238   6237   6240   6242     1  0.0000000  0.6508444  3
   6238   6237   6236   6247     1  0.0000000  1.2552000  3
   6239   6237   6240   6243     1  0.0000000  0.6508444  3
   6239   6237   6240   6241     1  0.0000000  0.6508444  3
   6239   6237   6240   6242     1  0.0000000  0.6508444  3
   6239   6237   6236   6247     1  0.0000000  1.2552000  3
   6240   6243   6245   6246     1  180.0000771  9.6232000  2
   6241   6240   6243   6244     1  0.0000000  3.3472000  1
   6241   6240   6243   6244     1  0.0000000  0.0000000  2
   6241   6240   6243   6244     1  180.0000771  0.3347200  3
   6241   6240   6243   6245     1  180.0000771  0.0000000  2
   6242   6240   6243   6244     1  0.0000000  3.3472000  1
   6242   6240   6243   6244     1  0.0000000  0.0000000  2
   6242   6240   6243   6244     1  180.0000771  0.3347200  3
   6242   6240   6243   6245     1  180.0000771  0.0000000  2
   6244   6243   6245   6246     1  0.0000000  7.9496000  1
   6244   6243   6245   6246     1  180.0000771  9.6232000  2
   6248   6247   6250   6253     1  0.0000000  0.6508444  3
   6248   6247   6250   6251     1  0.0000000  0.6508444  3
   6248   6247   6250   6252     1  0.0000000  0.6508444  3
   6249   6247   6250   6253     1  0.0000000  0.6508444  3
   6249   6247   6250   6251     1  0.0000000  0.6508444  3
   6249   6247   6250   6252     1  0.0000000  0.6508444  3
   6250   6253   6255   6256     1  180.0000771  9.6232000  2
   6251   6250   6253   6254     1  0.0000000  3.3472000  1
   6251   6250   6253   6254     1  0.0000000  0.0000000  2
   6251   6250   6253   6254     1  180.0000771  0.3347200  3
   6251   6250   6253   6255     1  180.0000771  0.0000000  2
   6252   6250   6253   6254     1  0.0000000  3.3472000  1
   6252   6250   6253   6254     1  0.0000000  0.0000000  2
   6252   6250   6253   6254     1  180.0000771  0.3347200  3
   6252   6250   6253   6255     1  180.0000771  0.0000000  2
   6254   6253   6255   6256     1  0.0000000  7.9496000  1
   6254   6253   6255   6256     1  180.0000771  9.6232000  2
   6258   6261   6264   6265     1  0.0000000  0.6508444  3
   6258   6261   6264   6266     1  0.0000000  0.6508444  3
   6259   6258   6261   6264     1  0.0000000  0.6508444  3
   6259   6258   6261   6262     1  0.0000000  0.6508444  3
   6259   6258   6261   6263     1  0.0000000  0.6508444  3
   6260   6258   6261   6264     1  0.0000000  0.6508444  3
   6260   6258   6261   6262     1  0.0000000  0.6508444  3
   6260   6258   6261   6263     1  0.0000000  0.6508444  3
   6262   6261   6258   6288     1  0.0000000  1.0460000  1
   6262   6261   6258   6288     1  0.0000000  0.0000000  3
   6262   6261   6264   6267     1  0.0000000  0.6508444  3
   6262   6261   6264   6265     1  0.0000000  0.6508444  3
   6262   6261   6264   6266     1  0.0000000  0.6508444  3
   6263   6261   6258   6288     1  0.0000000  1.0460000  1
   6263   6261   6258   6288     1  0.0000000  0.0000000  3
   6263   6261   6264   6267     1  0.0000000  0.6508444  3
   6263   6261   6264   6265     1  0.0000000  0.6508444  3
   6263   6261   6264   6266     1  0.0000000  0.6508444  3
   6264   6267   6268   6269     1  0.0000000  1.2552000  3
   6264   6267   6268   6270     1  0.0000000  1.2552000  3
   6264   6267   6278   6279     1  0.0000000  1.2552000  3
   6264   6267   6278   6280     1  0.0000000  1.2552000  3
   6265   6264   6267   6268     1  0.0000000  1.2552000  3
   6265   6264   6267   6278     1  0.0000000  1.2552000  3
   6266   6264   6267   6268     1  0.0000000  1.2552000  3
   6266   6264   6267   6278     1  0.0000000  1.2552000  3
   6267   6268   6271   6272     1  0.0000000  0.6508444  3
   6267   6268   6271   6273     1  0.0000000  0.6508444  3
   6267   6278   6281   6282     1  0.0000000  0.6508444  3
   6267   6278   6281   6283     1  0.0000000  0.6508444  3
   6268   6267   6278   6279     1  0.0000000  1.2552000  3
   6268   6267   6278   6280     1  0.0000000  1.2552000  3
   6269   6268   6267   6278     1  0.0000000  1.2552000  3
   6269   6268   6271   6274     1  0.0000000  0.6508444  3
   6269   6268   6271   6272     1  0.0000000  0.6508444  3
   6269   6268   6271   6273     1  0.0000000  0.6508444  3
   6270   6268   6267   6278     1  0.0000000  1.2552000  3
   6270   6268   6271   6274     1  0.0000000  0.6508444  3
   6270   6268   6271   6272     1  0.0000000  0.6508444  3
   6270   6268   6271   6273     1  0.0000000  0.6508444  3
   6271   6274   6276   6277     1  180.0000771  9.6232000  2
   6272   6271   6274   6275     1  0.0000000  3.3472000  1
   6272   6271   6274   6275     1  0.0000000  0.0000000  2
   6272   6271   6274   6275     1  180.0000771  0.3347200  3
   6272   6271   6274   6276     1  180.0000771  0.0000000  2
   6273   6271   6274   6275     1  0.0000000  3.3472000  1
   6273   6271   6274   6275     1  0.0000000  0.0000000  2
   6273   6271   6274   6275     1  180.0000771  0.3347200  3
   6273   6271   6274   6276     1  180.0000771  0.0000000  2
   6275   6274   6276   6277     1  0.0000000  7.9496000  1
   6275   6274   6276   6277     1  180.0000771  9.6232000  2
   6279   6278   6281   6284     1  0.0000000  0.6508444  3
   6279   6278   6281   6282     1  0.0000000  0.6508444  3
   6279   6278   6281   6283     1  0.0000000  0.6508444  3
   6280   6278   6281   6284     1  0.0000000  0.6508444  3
   6280   6278   6281   6282     1  0.0000000  0.6508444  3
   6280   6278   6281   6283     1  0.0000000  0.6508444  3
   6281   6284   6286   6287     1  180.0000771  9.6232000  2
   6282   6281   6284   6285     1  0.0000000  3.3472000  1
   6282   6281   6284   6285     1  0.0000000  0.0000000  2
   6282   6281   6284   6285     1  180.0000771  0.3347200  3
   6282   6281   6284   6286     1  180.0000771  0.0000000  2
   6283   6281   6284   6285     1  0.0000000  3.3472000  1
   6283   6281   6284   6285     1  0.0000000  0.0000000  2
   6283   6281   6284   6285     1  180.0000771  0.3347200  3
   6283   6281   6284   6286     1  180.0000771  0.0000000  2
   6285   6284   6286   6287     1  0.0000000  7.9496000  1
   6285   6284   6286   6287     1  180.0000771  9.6232000  2
   6289   6292   6295   6296     1  0.0000000  0.6508444  3
   6289   6292   6295   6297     1  0.0000000  0.6508444  3
   6290   6289   6292   6295     1  0.0000000  0.6508444  3
   6290   6289   6292   6293     1  0.0000000  0.6508444  3
   6290   6289   6292   6294     1  0.0000000  0.6508444  3
   6291   6289   6292   6295     1  0.0000000  0.6508444  3
   6291   6289   6292   6293     1  0.0000000  0.6508444  3
   6291   6289   6292   6294     1  0.0000000  0.6508444  3
   6293   6292   6295   6298     1  0.0000000  0.6508444  3
   6293   6292   6295   6296     1  0.0000000  0.6508444  3
   6293   6292   6295   6297     1  0.0000000  0.6508444  3
   6293   6292   6289   6319     1  0.0000000  1.0460000  1
   6293   6292   6289   6319     1  0.0000000  0.0000000  3
   6294   6292   6295   6298     1  0.0000000  0.6508444  3
   6294   6292   6295   6296     1  0.0000000  0.6508444  3
   6294   6292   6295   6297     1  0.0000000  0.6508444  3
   6294   6292   6289   6319     1  0.0000000  1.0460000  1
   6294   6292   6289   6319     1  0.0000000  0.0000000  3
   6295   6298   6299   6300     1  0.0000000  1.2552000  3
   6295   6298   6299   6301     1  0.0000000  1.2552000  3
   6295   6298   6309   6310     1  0.0000000  1.2552000  3
   6295   6298   6309   6311     1  0.0000000  1.2552000  3
   6296   6295   6298   6299     1  0.0000000  1.2552000  3
   6296   6295   6298   6309     1  0.0000000  1.2552000  3
   6297   6295   6298   6299     1  0.0000000  1.2552000  3
   6297   6295   6298   6309     1  0.0000000  1.2552000  3
   6298   6299   6302   6303     1  0.0000000  0.6508444  3
   6298   6299   6302   6304     1  0.0000000  0.6508444  3
   6298   6309   6312   6313     1  0.0000000  0.6508444  3
   6298   6309   6312   6314     1  0.0000000  0.6508444  3
   6299   6298   6309   6310     1  0.0000000  1.2552000  3
   6299   6298   6309   6311     1  0.0000000  1.2552000  3
   6300   6299   6302   6305     1  0.0000000  0.6508444  3
   6300   6299   6302   6303     1  0.0000000  0.6508444  3
   6300   6299   6302   6304     1  0.0000000  0.6508444  3
   6300   6299   6298   6309     1  0.0000000  1.2552000  3
   6301   6299   6302   6305     1  0.0000000  0.6508444  3
   6301   6299   6302   6303     1  0.0000000  0.6508444  3
   6301   6299   6302   6304     1  0.0000000  0.6508444  3
   6301   6299   6298   6309     1  0.0000000  1.2552000  3
   6302   6305   6307   6308     1  180.0000771  9.6232000  2
   6303   6302   6305   6306     1  0.0000000  3.3472000  1
   6303   6302   6305   6306     1  0.0000000  0.0000000  2
   6303   6302   6305   6306     1  180.0000771  0.3347200  3
   6303   6302   6305   6307     1  180.0000771  0.0000000  2
   6304   6302   6305   6306     1  0.0000000  3.3472000  1
   6304   6302   6305   6306     1  0.0000000  0.0000000  2
   6304   6302   6305   6306     1  180.0000771  0.3347200  3
   6304   6302   6305   6307     1  180.0000771  0.0000000  2
   6306   6305   6307   6308     1  0.0000000  7.9496000  1
   6306   6305   6307   6308     1  180.0000771  9.6232000  2
   6310   6309   6312   6315     1  0.0000000  0.6508444  3
   6310   6309   6312   6313     1  0.0000000  0.6508444  3
   6310   6309   6312   6314     1  0.0000000  0.6508444  3
   6311   6309   6312   6315     1  0.0000000  0.6508444  3
   6311   6309   6312   6313     1  0.0000000  0.6508444  3
   6311   6309   6312   6314     1  0.0000000  0.6508444  3
   6312   6315   6317   6318     1  180.0000771  9.6232000  2
   6313   6312   6315   6316     1  0.0000000  3.3472000  1
   6313   6312   6315   6316     1  0.0000000  0.0000000  2
   6313   6312   6315   6316     1  180.0000771  0.3347200  3
   6313   6312   6315   6317     1  180.0000771  0.0000000  2
   6314   6312   6315   6316     1  0.0000000  3.3472000  1
   6314   6312   6315   6316     1  0.0000000  0.0000000  2
   6314   6312   6315   6316     1  180.0000771  0.3347200  3
   6314   6312   6315   6317     1  180.0000771  0.0000000  2
   6316   6315   6317   6318     1  0.0000000  7.9496000  1
   6316   6315   6317   6318     1  180.0000771  9.6232000  2
   6320   6323   6326   6327     1  0.0000000  0.6508444  3
   6320   6323   6326   6328     1  0.0000000  0.6508444  3
   6321   6320   6323   6326     1  0.0000000  0.6508444  3
   6321   6320   6323   6324     1  0.0000000  0.6508444  3
   6321   6320   6323   6325     1  0.0000000  0.6508444  3
   6322   6320   6323   6326     1  0.0000000  0.6508444  3
   6322   6320   6323   6324     1  0.0000000  0.6508444  3
   6322   6320   6323   6325     1  0.0000000  0.6508444  3
   6324   6323   6320   6350     1  0.0000000  1.0460000  1
   6324   6323   6320   6350     1  0.0000000  0.0000000  3
   6324   6323   6326   6329     1  0.0000000  0.6508444  3
   6324   6323   6326   6327     1  0.0000000  0.6508444  3
   6324   6323   6326   6328     1  0.0000000  0.6508444  3
   6325   6323   6320   6350     1  0.0000000  1.0460000  1
   6325   6323   6320   6350     1  0.0000000  0.0000000  3
   6325   6323   6326   6329     1  0.0000000  0.6508444  3
   6325   6323   6326   6327     1  0.0000000  0.6508444  3
   6325   6323   6326   6328     1  0.0000000  0.6508444  3
   6326   6329   6330   6331     1  0.0000000  1.2552000  3
   6326   6329   6330   6332     1  0.0000000  1.2552000  3
   6326   6329   6340   6341     1  0.0000000  1.2552000  3
   6326   6329   6340   6342     1  0.0000000  1.2552000  3
   6327   6326   6329   6330     1  0.0000000  1.2552000  3
   6327   6326   6329   6340     1  0.0000000  1.2552000  3
   6328   6326   6329   6330     1  0.0000000  1.2552000  3
   6328   6326   6329   6340     1  0.0000000  1.2552000  3
   6329   6330   6333   6334     1  0.0000000  0.6508444  3
   6329   6330   6333   6335     1  0.0000000  0.6508444  3
   6329   6340   6343   6344     1  0.0000000  0.6508444  3
   6329   6340   6343   6345     1  0.0000000  0.6508444  3
   6330   6329   6340   6341     1  0.0000000  1.2552000  3
   6330   6329   6340   6342     1  0.0000000  1.2552000  3
   6331   6330   6329   6340     1  0.0000000  1.2552000  3
   6331   6330   6333   6336     1  0.0000000  0.6508444  3
   6331   6330   6333   6334     1  0.0000000  0.6508444  3
   6331   6330   6333   6335     1  0.0000000  0.6508444  3
   6332   6330   6329   6340     1  0.0000000  1.2552000  3
   6332   6330   6333   6336     1  0.0000000  0.6508444  3
   6332   6330   6333   6334     1  0.0000000  0.6508444  3
   6332   6330   6333   6335     1  0.0000000  0.6508444  3
   6333   6336   6338   6339     1  180.0000771  9.6232000  2
   6334   6333   6336   6337     1  0.0000000  3.3472000  1
   6334   6333   6336   6337     1  0.0000000  0.0000000  2
   6334   6333   6336   6337     1  180.0000771  0.3347200  3
   6334   6333   6336   6338     1  180.0000771  0.0000000  2
   6335   6333   6336   6337     1  0.0000000  3.3472000  1
   6335   6333   6336   6337     1  0.0000000  0.0000000  2
   6335   6333   6336   6337     1  180.0000771  0.3347200  3
   6335   6333   6336   6338     1  180.0000771  0.0000000  2
   6337   6336   6338   6339     1  0.0000000  7.9496000  1
   6337   6336   6338   6339     1  180.0000771  9.6232000  2
   6341   6340   6343   6346     1  0.0000000  0.6508444  3
   6341   6340   6343   6344     1  0.0000000  0.6508444  3
   6341   6340   6343   6345     1  0.0000000  0.6508444  3
   6342   6340   6343   6346     1  0.0000000  0.6508444  3
   6342   6340   6343   6344     1  0.0000000  0.6508444  3
   6342   6340   6343   6345     1  0.0000000  0.6508444  3
   6343   6346   6348   6349     1  180.0000771  9.6232000  2
   6344   6343   6346   6347     1  0.0000000  3.3472000  1
   6344   6343   6346   6347     1  0.0000000  0.0000000  2
   6344   6343   6346   6347     1  180.0000771  0.3347200  3
   6344   6343   6346   6348     1  180.0000771  0.0000000  2
   6345   6343   6346   6347     1  0.0000000  3.3472000  1
   6345   6343   6346   6347     1  0.0000000  0.0000000  2
   6345   6343   6346   6347     1  180.0000771  0.3347200  3
   6345   6343   6346   6348     1  180.0000771  0.0000000  2
   6347   6346   6348   6349     1  0.0000000  7.9496000  1
   6347   6346   6348   6349     1  180.0000771  9.6232000  2
   6351   6354   6357   6358     1  0.0000000  0.6508444  3
   6351   6354   6357   6359     1  0.0000000  0.6508444  3
   6352   6351   6354   6357     1  0.0000000  0.6508444  3
   6352   6351   6354   6355     1  0.0000000  0.6508444  3
   6352   6351   6354   6356     1  0.0000000  0.6508444  3
   6353   6351   6354   6357     1  0.0000000  0.6508444  3
   6353   6351   6354   6355     1  0.0000000  0.6508444  3
   6353   6351   6354   6356     1  0.0000000  0.6508444  3
   6355   6354   6357   6360     1  0.0000000  0.6508444  3
   6355   6354   6357   6358     1  0.0000000  0.6508444  3
   6355   6354   6357   6359     1  0.0000000  0.6508444  3
   6355   6354   6351   6381     1  0.0000000  1.0460000  1
   6355   6354   6351   6381     1  0.0000000  0.0000000  3
   6356   6354   6357   6360     1  0.0000000  0.6508444  3
   6356   6354   6357   6358     1  0.0000000  0.6508444  3
   6356   6354   6357   6359     1  0.0000000  0.6508444  3
   6356   6354   6351   6381     1  0.0000000  1.0460000  1
   6356   6354   6351   6381     1  0.0000000  0.0000000  3
   6357   6360   6361   6362     1  0.0000000  1.2552000  3
   6357   6360   6361   6363     1  0.0000000  1.2552000  3
   6357   6360   6371   6372     1  0.0000000  1.2552000  3
   6357   6360   6371   6373     1  0.0000000  1.2552000  3
   6358   6357   6360   6361     1  0.0000000  1.2552000  3
   6358   6357   6360   6371     1  0.0000000  1.2552000  3
   6359   6357   6360   6361     1  0.0000000  1.2552000  3
   6359   6357   6360   6371     1  0.0000000  1.2552000  3
   6360   6361   6364   6365     1  0.0000000  0.6508444  3
   6360   6361   6364   6366     1  0.0000000  0.6508444  3
   6360   6371   6374   6375     1  0.0000000  0.6508444  3
   6360   6371   6374   6376     1  0.0000000  0.6508444  3
   6361   6360   6371   6372     1  0.0000000  1.2552000  3
   6361   6360   6371   6373     1  0.0000000  1.2552000  3
   6362   6361   6364   6367     1  0.0000000  0.6508444  3
   6362   6361   6364   6365     1  0.0000000  0.6508444  3
   6362   6361   6364   6366     1  0.0000000  0.6508444  3
   6362   6361   6360   6371     1  0.0000000  1.2552000  3
   6363   6361   6364   6367     1  0.0000000  0.6508444  3
   6363   6361   6364   6365     1  0.0000000  0.6508444  3
   6363   6361   6364   6366     1  0.0000000  0.6508444  3
   6363   6361   6360   6371     1  0.0000000  1.2552000  3
   6364   6367   6369   6370     1  180.0000771  9.6232000  2
   6365   6364   6367   6368     1  0.0000000  3.3472000  1
   6365   6364   6367   6368     1  0.0000000  0.0000000  2
   6365   6364   6367   6368     1  180.0000771  0.3347200  3
   6365   6364   6367   6369     1  180.0000771  0.0000000  2
   6366   6364   6367   6368     1  0.0000000  3.3472000  1
   6366   6364   6367   6368     1  0.0000000  0.0000000  2
   6366   6364   6367   6368     1  180.0000771  0.3347200  3
   6366   6364   6367   6369     1  180.0000771  0.0000000  2
   6368   6367   6369   6370     1  0.0000000  7.9496000  1
   6368   6367   6369   6370     1  180.0000771  9.6232000  2
   6372   6371   6374   6377     1  0.0000000  0.6508444  3
   6372   6371   6374   6375     1  0.0000000  0.6508444  3
   6372   6371   6374   6376     1  0.0000000  0.6508444  3
   6373   6371   6374   6377     1  0.0000000  0.6508444  3
   6373   6371   6374   6375     1  0.0000000  0.6508444  3
   6373   6371   6374   6376     1  0.0000000  0.6508444  3
   6374   6377   6379   6380     1  180.0000771  9.6232000  2
   6375   6374   6377   6378     1  0.0000000  3.3472000  1
   6375   6374   6377   6378     1  0.0000000  0.0000000  2
   6375   6374   6377   6378     1  180.0000771  0.3347200  3
   6375   6374   6377   6379     1  180.0000771  0.0000000  2
   6376   6374   6377   6378     1  0.0000000  3.3472000  1
   6376   6374   6377   6378     1  0.0000000  0.0000000  2
   6376   6374   6377   6378     1  180.0000771  0.3347200  3
   6376   6374   6377   6379     1  180.0000771  0.0000000  2
   6378   6377   6379   6380     1  0.0000000  7.9496000  1
   6378   6377   6379   6380     1  180.0000771  9.6232000  2
   6382   6385   6388   6389     1  0.0000000  0.6508444  3
   6382   6385   6388   6390     1  0.0000000  0.6508444  3
   6383   6382   6385   6388     1  0.0000000  0.6508444  3
   6383   6382   6385   6386     1  0.0000000  0.6508444  3
   6383   6382   6385   6387     1  0.0000000  0.6508444  3
   6384   6382   6385   6388     1  0.0000000  0.6508444  3
   6384   6382   6385   6386     1  0.0000000  0.6508444  3
   6384   6382   6385   6387     1  0.0000000  0.6508444  3
   6386   6385   6382   6412     1  0.0000000  1.0460000  1
   6386   6385   6382   6412     1  0.0000000  0.0000000  3
   6386   6385   6388   6391     1  0.0000000  0.6508444  3
   6386   6385   6388   6389     1  0.0000000  0.6508444  3
   6386   6385   6388   6390     1  0.0000000  0.6508444  3
   6387   6385   6382   6412     1  0.0000000  1.0460000  1
   6387   6385   6382   6412     1  0.0000000  0.0000000  3
   6387   6385   6388   6391     1  0.0000000  0.6508444  3
   6387   6385   6388   6389     1  0.0000000  0.6508444  3
   6387   6385   6388   6390     1  0.0000000  0.6508444  3
   6388   6391   6392   6393     1  0.0000000  1.2552000  3
   6388   6391   6392   6394     1  0.0000000  1.2552000  3
   6388   6391   6402   6403     1  0.0000000  1.2552000  3
   6388   6391   6402   6404     1  0.0000000  1.2552000  3
   6389   6388   6391   6392     1  0.0000000  1.2552000  3
   6389   6388   6391   6402     1  0.0000000  1.2552000  3
   6390   6388   6391   6392     1  0.0000000  1.2552000  3
   6390   6388   6391   6402     1  0.0000000  1.2552000  3
   6391   6392   6395   6396     1  0.0000000  0.6508444  3
   6391   6392   6395   6397     1  0.0000000  0.6508444  3
   6391   6402   6405   6406     1  0.0000000  0.6508444  3
   6391   6402   6405   6407     1  0.0000000  0.6508444  3
   6392   6391   6402   6403     1  0.0000000  1.2552000  3
   6392   6391   6402   6404     1  0.0000000  1.2552000  3
   6393   6392   6391   6402     1  0.0000000  1.2552000  3
   6393   6392   6395   6398     1  0.0000000  0.6508444  3
   6393   6392   6395   6396     1  0.0000000  0.6508444  3
   6393   6392   6395   6397     1  0.0000000  0.6508444  3
   6394   6392   6391   6402     1  0.0000000  1.2552000  3
   6394   6392   6395   6398     1  0.0000000  0.6508444  3
   6394   6392   6395   6396     1  0.0000000  0.6508444  3
   6394   6392   6395   6397     1  0.0000000  0.6508444  3
   6395   6398   6400   6401     1  180.0000771  9.6232000  2
   6396   6395   6398   6399     1  0.0000000  3.3472000  1
   6396   6395   6398   6399     1  0.0000000  0.0000000  2
   6396   6395   6398   6399     1  180.0000771  0.3347200  3
   6396   6395   6398   6400     1  180.0000771  0.0000000  2
   6397   6395   6398   6399     1  0.0000000  3.3472000  1
   6397   6395   6398   6399     1  0.0000000  0.0000000  2
   6397   6395   6398   6399     1  180.0000771  0.3347200  3
   6397   6395   6398   6400     1  180.0000771  0.0000000  2
   6399   6398   6400   6401     1  0.0000000  7.9496000  1
   6399   6398   6400   6401     1  180.0000771  9.6232000  2
   6403   6402   6405   6408     1  0.0000000  0.6508444  3
   6403   6402   6405   6406     1  0.0000000  0.6508444  3
   6403   6402   6405   6407     1  0.0000000  0.6508444  3
   6404   6402   6405   6408     1  0.0000000  0.6508444  3
   6404   6402   6405   6406     1  0.0000000  0.6508444  3
   6404   6402   6405   6407     1  0.0000000  0.6508444  3
   6405   6408   6410   6411     1  180.0000771  9.6232000  2
   6406   6405   6408   6409     1  0.0000000  3.3472000  1
   6406   6405   6408   6409     1  0.0000000  0.0000000  2
   6406   6405   6408   6409     1  180.0000771  0.3347200  3
   6406   6405   6408   6410     1  180.0000771  0.0000000  2
   6407   6405   6408   6409     1  0.0000000  3.3472000  1
   6407   6405   6408   6409     1  0.0000000  0.0000000  2
   6407   6405   6408   6409     1  180.0000771  0.3347200  3
   6407   6405   6408   6410     1  180.0000771  0.0000000  2
   6409   6408   6410   6411     1  0.0000000  7.9496000  1
   6409   6408   6410   6411     1  180.0000771  9.6232000  2
   6413   6416   6419   6420     1  0.0000000  0.6508444  3
   6413   6416   6419   6421     1  0.0000000  0.6508444  3
   6414   6413   6416   6419     1  0.0000000  0.6508444  3
   6414   6413   6416   6417     1  0.0000000  0.6508444  3
   6414   6413   6416   6418     1  0.0000000  0.6508444  3
   6415   6413   6416   6419     1  0.0000000  0.6508444  3
   6415   6413   6416   6417     1  0.0000000  0.6508444  3
   6415   6413   6416   6418     1  0.0000000  0.6508444  3
   6417   6416   6419   6422     1  0.0000000  0.6508444  3
   6417   6416   6419   6420     1  0.0000000  0.6508444  3
   6417   6416   6419   6421     1  0.0000000  0.6508444  3
   6417   6416   6413   6443     1  0.0000000  1.0460000  1
   6417   6416   6413   6443     1  0.0000000  0.0000000  3
   6418   6416   6419   6422     1  0.0000000  0.6508444  3
   6418   6416   6419   6420     1  0.0000000  0.6508444  3
   6418   6416   6419   6421     1  0.0000000  0.6508444  3
   6418   6416   6413   6443     1  0.0000000  1.0460000  1
   6418   6416   6413   6443     1  0.0000000  0.0000000  3
   6419   6422   6423   6424     1  0.0000000  1.2552000  3
   6419   6422   6423   6425     1  0.0000000  1.2552000  3
   6419   6422   6433   6434     1  0.0000000  1.2552000  3
   6419   6422   6433   6435     1  0.0000000  1.2552000  3
   6420   6419   6422   6423     1  0.0000000  1.2552000  3
   6420   6419   6422   6433     1  0.0000000  1.2552000  3
   6421   6419   6422   6423     1  0.0000000  1.2552000  3
   6421   6419   6422   6433     1  0.0000000  1.2552000  3
   6422   6423   6426   6427     1  0.0000000  0.6508444  3
   6422   6423   6426   6428     1  0.0000000  0.6508444  3
   6422   6433   6436   6437     1  0.0000000  0.6508444  3
   6422   6433   6436   6438     1  0.0000000  0.6508444  3
   6423   6422   6433   6434     1  0.0000000  1.2552000  3
   6423   6422   6433   6435     1  0.0000000  1.2552000  3
   6424   6423   6426   6429     1  0.0000000  0.6508444  3
   6424   6423   6426   6427     1  0.0000000  0.6508444  3
   6424   6423   6426   6428     1  0.0000000  0.6508444  3
   6424   6423   6422   6433     1  0.0000000  1.2552000  3
   6425   6423   6426   6429     1  0.0000000  0.6508444  3
   6425   6423   6426   6427     1  0.0000000  0.6508444  3
   6425   6423   6426   6428     1  0.0000000  0.6508444  3
   6425   6423   6422   6433     1  0.0000000  1.2552000  3
   6426   6429   6431   6432     1  180.0000771  9.6232000  2
   6427   6426   6429   6430     1  0.0000000  3.3472000  1
   6427   6426   6429   6430     1  0.0000000  0.0000000  2
   6427   6426   6429   6430     1  180.0000771  0.3347200  3
   6427   6426   6429   6431     1  180.0000771  0.0000000  2
   6428   6426   6429   6430     1  0.0000000  3.3472000  1
   6428   6426   6429   6430     1  0.0000000  0.0000000  2
   6428   6426   6429   6430     1  180.0000771  0.3347200  3
   6428   6426   6429   6431     1  180.0000771  0.0000000  2
   6430   6429   6431   6432     1  0.0000000  7.9496000  1
   6430   6429   6431   6432     1  180.0000771  9.6232000  2
   6434   6433   6436   6439     1  0.0000000  0.6508444  3
   6434   6433   6436   6437     1  0.0000000  0.6508444  3
   6434   6433   6436   6438     1  0.0000000  0.6508444  3
   6435   6433   6436   6439     1  0.0000000  0.6508444  3
   6435   6433   6436   6437     1  0.0000000  0.6508444  3
   6435   6433   6436   6438     1  0.0000000  0.6508444  3
   6436   6439   6441   6442     1  180.0000771  9.6232000  2
   6437   6436   6439   6440     1  0.0000000  3.3472000  1
   6437   6436   6439   6440     1  0.0000000  0.0000000  2
   6437   6436   6439   6440     1  180.0000771  0.3347200  3
   6437   6436   6439   6441     1  180.0000771  0.0000000  2
   6438   6436   6439   6440     1  0.0000000  3.3472000  1
   6438   6436   6439   6440     1  0.0000000  0.0000000  2
   6438   6436   6439   6440     1  180.0000771  0.3347200  3
   6438   6436   6439   6441     1  180.0000771  0.0000000  2
   6440   6439   6441   6442     1  0.0000000  7.9496000  1
   6440   6439   6441   6442     1  180.0000771  9.6232000  2
   6444   6447   6450   6451     1  0.0000000  0.6508444  3
   6444   6447   6450   6452     1  0.0000000  0.6508444  3
   6445   6444   6447   6450     1  0.0000000  0.6508444  3
   6445   6444   6447   6448     1  0.0000000  0.6508444  3
   6445   6444   6447   6449     1  0.0000000  0.6508444  3
   6446   6444   6447   6450     1  0.0000000  0.6508444  3
   6446   6444   6447   6448     1  0.0000000  0.6508444  3
   6446   6444   6447   6449     1  0.0000000  0.6508444  3
   6448   6447   6444   6474     1  0.0000000  1.0460000  1
   6448   6447   6444   6474     1  0.0000000  0.0000000  3
   6448   6447   6450   6453     1  0.0000000  0.6508444  3
   6448   6447   6450   6451     1  0.0000000  0.6508444  3
   6448   6447   6450   6452     1  0.0000000  0.6508444  3
   6449   6447   6444   6474     1  0.0000000  1.0460000  1
   6449   6447   6444   6474     1  0.0000000  0.0000000  3
   6449   6447   6450   6453     1  0.0000000  0.6508444  3
   6449   6447   6450   6451     1  0.0000000  0.6508444  3
   6449   6447   6450   6452     1  0.0000000  0.6508444  3
   6450   6453   6454   6455     1  0.0000000  1.2552000  3
   6450   6453   6454   6456     1  0.0000000  1.2552000  3
   6450   6453   6464   6465     1  0.0000000  1.2552000  3
   6450   6453   6464   6466     1  0.0000000  1.2552000  3
   6451   6450   6453   6454     1  0.0000000  1.2552000  3
   6451   6450   6453   6464     1  0.0000000  1.2552000  3
   6452   6450   6453   6454     1  0.0000000  1.2552000  3
   6452   6450   6453   6464     1  0.0000000  1.2552000  3
   6453   6454   6457   6458     1  0.0000000  0.6508444  3
   6453   6454   6457   6459     1  0.0000000  0.6508444  3
   6453   6464   6467   6468     1  0.0000000  0.6508444  3
   6453   6464   6467   6469     1  0.0000000  0.6508444  3
   6454   6453   6464   6465     1  0.0000000  1.2552000  3
   6454   6453   6464   6466     1  0.0000000  1.2552000  3
   6455   6454   6453   6464     1  0.0000000  1.2552000  3
   6455   6454   6457   6460     1  0.0000000  0.6508444  3
   6455   6454   6457   6458     1  0.0000000  0.6508444  3
   6455   6454   6457   6459     1  0.0000000  0.6508444  3
   6456   6454   6453   6464     1  0.0000000  1.2552000  3
   6456   6454   6457   6460     1  0.0000000  0.6508444  3
   6456   6454   6457   6458     1  0.0000000  0.6508444  3
   6456   6454   6457   6459     1  0.0000000  0.6508444  3
   6457   6460   6462   6463     1  180.0000771  9.6232000  2
   6458   6457   6460   6461     1  0.0000000  3.3472000  1
   6458   6457   6460   6461     1  0.0000000  0.0000000  2
   6458   6457   6460   6461     1  180.0000771  0.3347200  3
   6458   6457   6460   6462     1  180.0000771  0.0000000  2
   6459   6457   6460   6461     1  0.0000000  3.3472000  1
   6459   6457   6460   6461     1  0.0000000  0.0000000  2
   6459   6457   6460   6461     1  180.0000771  0.3347200  3
   6459   6457   6460   6462     1  180.0000771  0.0000000  2
   6461   6460   6462   6463     1  0.0000000  7.9496000  1
   6461   6460   6462   6463     1  180.0000771  9.6232000  2
   6465   6464   6467   6470     1  0.0000000  0.6508444  3
   6465   6464   6467   6468     1  0.0000000  0.6508444  3
   6465   6464   6467   6469     1  0.0000000  0.6508444  3
   6466   6464   6467   6470     1  0.0000000  0.6508444  3
   6466   6464   6467   6468     1  0.0000000  0.6508444  3
   6466   6464   6467   6469     1  0.0000000  0.6508444  3
   6467   6470   6472   6473     1  180.0000771  9.6232000  2
   6468   6467   6470   6471     1  0.0000000  3.3472000  1
   6468   6467   6470   6471     1  0.0000000  0.0000000  2
   6468   6467   6470   6471     1  180.0000771  0.3347200  3
   6468   6467   6470   6472     1  180.0000771  0.0000000  2
   6469   6467   6470   6471     1  0.0000000  3.3472000  1
   6469   6467   6470   6471     1  0.0000000  0.0000000  2
   6469   6467   6470   6471     1  180.0000771  0.3347200  3
   6469   6467   6470   6472     1  180.0000771  0.0000000  2
   6471   6470   6472   6473     1  0.0000000  7.9496000  1
   6471   6470   6472   6473     1  180.0000771  9.6232000  2
   6475   6478   6481   6482     1  0.0000000  0.6508444  3
   6475   6478   6481   6483     1  0.0000000  0.6508444  3
   6476   6475   6478   6481     1  0.0000000  0.6508444  3
   6476   6475   6478   6479     1  0.0000000  0.6508444  3
   6476   6475   6478   6480     1  0.0000000  0.6508444  3
   6477   6475   6478   6481     1  0.0000000  0.6508444  3
   6477   6475   6478   6479     1  0.0000000  0.6508444  3
   6477   6475   6478   6480     1  0.0000000  0.6508444  3
   6479   6478   6481   6484     1  0.0000000  0.6508444  3
   6479   6478   6481   6482     1  0.0000000  0.6508444  3
   6479   6478   6481   6483     1  0.0000000  0.6508444  3
   6479   6478   6475   6505     1  0.0000000  1.0460000  1
   6479   6478   6475   6505     1  0.0000000  0.0000000  3
   6480   6478   6481   6484     1  0.0000000  0.6508444  3
   6480   6478   6481   6482     1  0.0000000  0.6508444  3
   6480   6478   6481   6483     1  0.0000000  0.6508444  3
   6480   6478   6475   6505     1  0.0000000  1.0460000  1
   6480   6478   6475   6505     1  0.0000000  0.0000000  3
   6481   6484   6485   6486     1  0.0000000  1.2552000  3
   6481   6484   6485   6487     1  0.0000000  1.2552000  3
   6481   6484   6495   6496     1  0.0000000  1.2552000  3
   6481   6484   6495   6497     1  0.0000000  1.2552000  3
   6482   6481   6484   6485     1  0.0000000  1.2552000  3
   6482   6481   6484   6495     1  0.0000000  1.2552000  3
   6483   6481   6484   6485     1  0.0000000  1.2552000  3
   6483   6481   6484   6495     1  0.0000000  1.2552000  3
   6484   6485   6488   6489     1  0.0000000  0.6508444  3
   6484   6485   6488   6490     1  0.0000000  0.6508444  3
   6484   6495   6498   6499     1  0.0000000  0.6508444  3
   6484   6495   6498   6500     1  0.0000000  0.6508444  3
   6485   6484   6495   6496     1  0.0000000  1.2552000  3
   6485   6484   6495   6497     1  0.0000000  1.2552000  3
   6486   6485   6488   6491     1  0.0000000  0.6508444  3
   6486   6485   6488   6489     1  0.0000000  0.6508444  3
   6486   6485   6488   6490     1  0.0000000  0.6508444  3
   6486   6485   6484   6495     1  0.0000000  1.2552000  3
   6487   6485   6488   6491     1  0.0000000  0.6508444  3
   6487   6485   6488   6489     1  0.0000000  0.6508444  3
   6487   6485   6488   6490     1  0.0000000  0.6508444  3
   6487   6485   6484   6495     1  0.0000000  1.2552000  3
   6488   6491   6493   6494     1  180.0000771  9.6232000  2
   6489   6488   6491   6492     1  0.0000000  3.3472000  1
   6489   6488   6491   6492     1  0.0000000  0.0000000  2
   6489   6488   6491   6492     1  180.0000771  0.3347200  3
   6489   6488   6491   6493     1  180.0000771  0.0000000  2
   6490   6488   6491   6492     1  0.0000000  3.3472000  1
   6490   6488   6491   6492     1  0.0000000  0.0000000  2
   6490   6488   6491   6492     1  180.0000771  0.3347200  3
   6490   6488   6491   6493     1  180.0000771  0.0000000  2
   6492   6491   6493   6494     1  0.0000000  7.9496000  1
   6492   6491   6493   6494     1  180.0000771  9.6232000  2
   6496   6495   6498   6501     1  0.0000000  0.6508444  3
   6496   6495   6498   6499     1  0.0000000  0.6508444  3
   6496   6495   6498   6500     1  0.0000000  0.6508444  3
   6497   6495   6498   6501     1  0.0000000  0.6508444  3
   6497   6495   6498   6499     1  0.0000000  0.6508444  3
   6497   6495   6498   6500     1  0.0000000  0.6508444  3
   6498   6501   6503   6504     1  180.0000771  9.6232000  2
   6499   6498   6501   6502     1  0.0000000  3.3472000  1
   6499   6498   6501   6502     1  0.0000000  0.0000000  2
   6499   6498   6501   6502     1  180.0000771  0.3347200  3
   6499   6498   6501   6503     1  180.0000771  0.0000000  2
   6500   6498   6501   6502     1  0.0000000  3.3472000  1
   6500   6498   6501   6502     1  0.0000000  0.0000000  2
   6500   6498   6501   6502     1  180.0000771  0.3347200  3
   6500   6498   6501   6503     1  180.0000771  0.0000000  2
   6502   6501   6503   6504     1  0.0000000  7.9496000  1
   6502   6501   6503   6504     1  180.0000771  9.6232000  2
   6506   6509   6512   6513     1  0.0000000  0.6508444  3
   6506   6509   6512   6514     1  0.0000000  0.6508444  3
   6507   6506   6509   6512     1  0.0000000  0.6508444  3
   6507   6506   6509   6510     1  0.0000000  0.6508444  3
   6507   6506   6509   6511     1  0.0000000  0.6508444  3
   6508   6506   6509   6512     1  0.0000000  0.6508444  3
   6508   6506   6509   6510     1  0.0000000  0.6508444  3
   6508   6506   6509   6511     1  0.0000000  0.6508444  3
   6510   6509   6506   6536     1  0.0000000  1.0460000  1
   6510   6509   6506   6536     1  0.0000000  0.0000000  3
   6510   6509   6512   6515     1  0.0000000  0.6508444  3
   6510   6509   6512   6513     1  0.0000000  0.6508444  3
   6510   6509   6512   6514     1  0.0000000  0.6508444  3
   6511   6509   6506   6536     1  0.0000000  1.0460000  1
   6511   6509   6506   6536     1  0.0000000  0.0000000  3
   6511   6509   6512   6515     1  0.0000000  0.6508444  3
   6511   6509   6512   6513     1  0.0000000  0.6508444  3
   6511   6509   6512   6514     1  0.0000000  0.6508444  3
   6512   6515   6516   6517     1  0.0000000  1.2552000  3
   6512   6515   6516   6518     1  0.0000000  1.2552000  3
   6512   6515   6526   6527     1  0.0000000  1.2552000  3
   6512   6515   6526   6528     1  0.0000000  1.2552000  3
   6513   6512   6515   6516     1  0.0000000  1.2552000  3
   6513   6512   6515   6526     1  0.0000000  1.2552000  3
   6514   6512   6515   6516     1  0.0000000  1.2552000  3
   6514   6512   6515   6526     1  0.0000000  1.2552000  3
   6515   6516   6519   6520     1  0.0000000  0.6508444  3
   6515   6516   6519   6521     1  0.0000000  0.6508444  3
   6515   6526   6529   6530     1  0.0000000  0.6508444  3
   6515   6526   6529   6531     1  0.0000000  0.6508444  3
   6516   6515   6526   6527     1  0.0000000  1.2552000  3
   6516   6515   6526   6528     1  0.0000000  1.2552000  3
   6517   6516   6515   6526     1  0.0000000  1.2552000  3
   6517   6516   6519   6522     1  0.0000000  0.6508444  3
   6517   6516   6519   6520     1  0.0000000  0.6508444  3
   6517   6516   6519   6521     1  0.0000000  0.6508444  3
   6518   6516   6515   6526     1  0.0000000  1.2552000  3
   6518   6516   6519   6522     1  0.0000000  0.6508444  3
   6518   6516   6519   6520     1  0.0000000  0.6508444  3
   6518   6516   6519   6521     1  0.0000000  0.6508444  3
   6519   6522   6524   6525     1  180.0000771  9.6232000  2
   6520   6519   6522   6523     1  0.0000000  3.3472000  1
   6520   6519   6522   6523     1  0.0000000  0.0000000  2
   6520   6519   6522   6523     1  180.0000771  0.3347200  3
   6520   6519   6522   6524     1  180.0000771  0.0000000  2
   6521   6519   6522   6523     1  0.0000000  3.3472000  1
   6521   6519   6522   6523     1  0.0000000  0.0000000  2
   6521   6519   6522   6523     1  180.0000771  0.3347200  3
   6521   6519   6522   6524     1  180.0000771  0.0000000  2
   6523   6522   6524   6525     1  0.0000000  7.9496000  1
   6523   6522   6524   6525     1  180.0000771  9.6232000  2
   6527   6526   6529   6532     1  0.0000000  0.6508444  3
   6527   6526   6529   6530     1  0.0000000  0.6508444  3
   6527   6526   6529   6531     1  0.0000000  0.6508444  3
   6528   6526   6529   6532     1  0.0000000  0.6508444  3
   6528   6526   6529   6530     1  0.0000000  0.6508444  3
   6528   6526   6529   6531     1  0.0000000  0.6508444  3
   6529   6532   6534   6535     1  180.0000771  9.6232000  2
   6530   6529   6532   6533     1  0.0000000  3.3472000  1
   6530   6529   6532   6533     1  0.0000000  0.0000000  2
   6530   6529   6532   6533     1  180.0000771  0.3347200  3
   6530   6529   6532   6534     1  180.0000771  0.0000000  2
   6531   6529   6532   6533     1  0.0000000  3.3472000  1
   6531   6529   6532   6533     1  0.0000000  0.0000000  2
   6531   6529   6532   6533     1  180.0000771  0.3347200  3
   6531   6529   6532   6534     1  180.0000771  0.0000000  2
   6533   6532   6534   6535     1  0.0000000  7.9496000  1
   6533   6532   6534   6535     1  180.0000771  9.6232000  2
   6537   6540   6543   6544     1  0.0000000  0.6508444  3
   6537   6540   6543   6545     1  0.0000000  0.6508444  3
   6538   6537   6540   6543     1  0.0000000  0.6508444  3
   6538   6537   6540   6541     1  0.0000000  0.6508444  3
   6538   6537   6540   6542     1  0.0000000  0.6508444  3
   6539   6537   6540   6543     1  0.0000000  0.6508444  3
   6539   6537   6540   6541     1  0.0000000  0.6508444  3
   6539   6537   6540   6542     1  0.0000000  0.6508444  3
   6541   6540   6543   6546     1  0.0000000  0.6508444  3
   6541   6540   6543   6544     1  0.0000000  0.6508444  3
   6541   6540   6543   6545     1  0.0000000  0.6508444  3
   6541   6540   6537   6567     1  0.0000000  1.0460000  1
   6541   6540   6537   6567     1  0.0000000  0.0000000  3
   6542   6540   6543   6546     1  0.0000000  0.6508444  3
   6542   6540   6543   6544     1  0.0000000  0.6508444  3
   6542   6540   6543   6545     1  0.0000000  0.6508444  3
   6542   6540   6537   6567     1  0.0000000  1.0460000  1
   6542   6540   6537   6567     1  0.0000000  0.0000000  3
   6543   6546   6547   6548     1  0.0000000  1.2552000  3
   6543   6546   6547   6549     1  0.0000000  1.2552000  3
   6543   6546   6557   6558     1  0.0000000  1.2552000  3
   6543   6546   6557   6559     1  0.0000000  1.2552000  3
   6544   6543   6546   6547     1  0.0000000  1.2552000  3
   6544   6543   6546   6557     1  0.0000000  1.2552000  3
   6545   6543   6546   6547     1  0.0000000  1.2552000  3
   6545   6543   6546   6557     1  0.0000000  1.2552000  3
   6546   6547   6550   6551     1  0.0000000  0.6508444  3
   6546   6547   6550   6552     1  0.0000000  0.6508444  3
   6546   6557   6560   6561     1  0.0000000  0.6508444  3
   6546   6557   6560   6562     1  0.0000000  0.6508444  3
   6547   6546   6557   6558     1  0.0000000  1.2552000  3
   6547   6546   6557   6559     1  0.0000000  1.2552000  3
   6548   6547   6550   6553     1  0.0000000  0.6508444  3
   6548   6547   6550   6551     1  0.0000000  0.6508444  3
   6548   6547   6550   6552     1  0.0000000  0.6508444  3
   6548   6547   6546   6557     1  0.0000000  1.2552000  3
   6549   6547   6550   6553     1  0.0000000  0.6508444  3
   6549   6547   6550   6551     1  0.0000000  0.6508444  3
   6549   6547   6550   6552     1  0.0000000  0.6508444  3
   6549   6547   6546   6557     1  0.0000000  1.2552000  3
   6550   6553   6555   6556     1  180.0000771  9.6232000  2
   6551   6550   6553   6554     1  0.0000000  3.3472000  1
   6551   6550   6553   6554     1  0.0000000  0.0000000  2
   6551   6550   6553   6554     1  180.0000771  0.3347200  3
   6551   6550   6553   6555     1  180.0000771  0.0000000  2
   6552   6550   6553   6554     1  0.0000000  3.3472000  1
   6552   6550   6553   6554     1  0.0000000  0.0000000  2
   6552   6550   6553   6554     1  180.0000771  0.3347200  3
   6552   6550   6553   6555     1  180.0000771  0.0000000  2
   6554   6553   6555   6556     1  0.0000000  7.9496000  1
   6554   6553   6555   6556     1  180.0000771  9.6232000  2
   6558   6557   6560   6563     1  0.0000000  0.6508444  3
   6558   6557   6560   6561     1  0.0000000  0.6508444  3
   6558   6557   6560   6562     1  0.0000000  0.6508444  3
   6559   6557   6560   6563     1  0.0000000  0.6508444  3
   6559   6557   6560   6561     1  0.0000000  0.6508444  3
   6559   6557   6560   6562     1  0.0000000  0.6508444  3
   6560   6563   6565   6566     1  180.0000771  9.6232000  2
   6561   6560   6563   6564     1  0.0000000  3.3472000  1
   6561   6560   6563   6564     1  0.0000000  0.0000000  2
   6561   6560   6563   6564     1  180.0000771  0.3347200  3
   6561   6560   6563   6565     1  180.0000771  0.0000000  2
   6562   6560   6563   6564     1  0.0000000  3.3472000  1
   6562   6560   6563   6564     1  0.0000000  0.0000000  2
   6562   6560   6563   6564     1  180.0000771  0.3347200  3
   6562   6560   6563   6565     1  180.0000771  0.0000000  2
   6564   6563   6565   6566     1  0.0000000  7.9496000  1
   6564   6563   6565   6566     1  180.0000771  9.6232000  2
   6568   6571   6574   6575     1  0.0000000  0.6508444  3
   6568   6571   6574   6576     1  0.0000000  0.6508444  3
   6569   6568   6571   6574     1  0.0000000  0.6508444  3
   6569   6568   6571   6572     1  0.0000000  0.6508444  3
   6569   6568   6571   6573     1  0.0000000  0.6508444  3
   6570   6568   6571   6574     1  0.0000000  0.6508444  3
   6570   6568   6571   6572     1  0.0000000  0.6508444  3
   6570   6568   6571   6573     1  0.0000000  0.6508444  3
   6572   6571   6568   6598     1  0.0000000  1.0460000  1
   6572   6571   6568   6598     1  0.0000000  0.0000000  3
   6572   6571   6574   6577     1  0.0000000  0.6508444  3
   6572   6571   6574   6575     1  0.0000000  0.6508444  3
   6572   6571   6574   6576     1  0.0000000  0.6508444  3
   6573   6571   6568   6598     1  0.0000000  1.0460000  1
   6573   6571   6568   6598     1  0.0000000  0.0000000  3
   6573   6571   6574   6577     1  0.0000000  0.6508444  3
   6573   6571   6574   6575     1  0.0000000  0.6508444  3
   6573   6571   6574   6576     1  0.0000000  0.6508444  3
   6574   6577   6578   6579     1  0.0000000  1.2552000  3
   6574   6577   6578   6580     1  0.0000000  1.2552000  3
   6574   6577   6588   6589     1  0.0000000  1.2552000  3
   6574   6577   6588   6590     1  0.0000000  1.2552000  3
   6575   6574   6577   6578     1  0.0000000  1.2552000  3
   6575   6574   6577   6588     1  0.0000000  1.2552000  3
   6576   6574   6577   6578     1  0.0000000  1.2552000  3
   6576   6574   6577   6588     1  0.0000000  1.2552000  3
   6577   6578   6581   6582     1  0.0000000  0.6508444  3
   6577   6578   6581   6583     1  0.0000000  0.6508444  3
   6577   6588   6591   6592     1  0.0000000  0.6508444  3
   6577   6588   6591   6593     1  0.0000000  0.6508444  3
   6578   6577   6588   6589     1  0.0000000  1.2552000  3
   6578   6577   6588   6590     1  0.0000000  1.2552000  3
   6579   6578   6577   6588     1  0.0000000  1.2552000  3
   6579   6578   6581   6584     1  0.0000000  0.6508444  3
   6579   6578   6581   6582     1  0.0000000  0.6508444  3
   6579   6578   6581   6583     1  0.0000000  0.6508444  3
   6580   6578   6577   6588     1  0.0000000  1.2552000  3
   6580   6578   6581   6584     1  0.0000000  0.6508444  3
   6580   6578   6581   6582     1  0.0000000  0.6508444  3
   6580   6578   6581   6583     1  0.0000000  0.6508444  3
   6581   6584   6586   6587     1  180.0000771  9.6232000  2
   6582   6581   6584   6585     1  0.0000000  3.3472000  1
   6582   6581   6584   6585     1  0.0000000  0.0000000  2
   6582   6581   6584   6585     1  180.0000771  0.3347200  3
   6582   6581   6584   6586     1  180.0000771  0.0000000  2
   6583   6581   6584   6585     1  0.0000000  3.3472000  1
   6583   6581   6584   6585     1  0.0000000  0.0000000  2
   6583   6581   6584   6585     1  180.0000771  0.3347200  3
   6583   6581   6584   6586     1  180.0000771  0.0000000  2
   6585   6584   6586   6587     1  0.0000000  7.9496000  1
   6585   6584   6586   6587     1  180.0000771  9.6232000  2
   6589   6588   6591   6594     1  0.0000000  0.6508444  3
   6589   6588   6591   6592     1  0.0000000  0.6508444  3
   6589   6588   6591   6593     1  0.0000000  0.6508444  3
   6590   6588   6591   6594     1  0.0000000  0.6508444  3
   6590   6588   6591   6592     1  0.0000000  0.6508444  3
   6590   6588   6591   6593     1  0.0000000  0.6508444  3
   6591   6594   6596   6597     1  180.0000771  9.6232000  2
   6592   6591   6594   6595     1  0.0000000  3.3472000  1
   6592   6591   6594   6595     1  0.0000000  0.0000000  2
   6592   6591   6594   6595     1  180.0000771  0.3347200  3
   6592   6591   6594   6596     1  180.0000771  0.0000000  2
   6593   6591   6594   6595     1  0.0000000  3.3472000  1
   6593   6591   6594   6595     1  0.0000000  0.0000000  2
   6593   6591   6594   6595     1  180.0000771  0.3347200  3
   6593   6591   6594   6596     1  180.0000771  0.0000000  2
   6595   6594   6596   6597     1  0.0000000  7.9496000  1
   6595   6594   6596   6597     1  180.0000771  9.6232000  2
   6599   6602   6605   6606     1  0.0000000  0.6508444  3
   6599   6602   6605   6607     1  0.0000000  0.6508444  3
   6600   6599   6602   6605     1  0.0000000  0.6508444  3
   6600   6599   6602   6603     1  0.0000000  0.6508444  3
   6600   6599   6602   6604     1  0.0000000  0.6508444  3
   6601   6599   6602   6605     1  0.0000000  0.6508444  3
   6601   6599   6602   6603     1  0.0000000  0.6508444  3
   6601   6599   6602   6604     1  0.0000000  0.6508444  3
   6603   6602   6605   6608     1  0.0000000  0.6508444  3
   6603   6602   6605   6606     1  0.0000000  0.6508444  3
   6603   6602   6605   6607     1  0.0000000  0.6508444  3
   6603   6602   6599   6629     1  0.0000000  1.0460000  1
   6603   6602   6599   6629     1  0.0000000  0.0000000  3
   6604   6602   6605   6608     1  0.0000000  0.6508444  3
   6604   6602   6605   6606     1  0.0000000  0.6508444  3
   6604   6602   6605   6607     1  0.0000000  0.6508444  3
   6604   6602   6599   6629     1  0.0000000  1.0460000  1
   6604   6602   6599   6629     1  0.0000000  0.0000000  3
   6605   6608   6609   6610     1  0.0000000  1.2552000  3
   6605   6608   6609   6611     1  0.0000000  1.2552000  3
   6605   6608   6619   6620     1  0.0000000  1.2552000  3
   6605   6608   6619   6621     1  0.0000000  1.2552000  3
   6606   6605   6608   6609     1  0.0000000  1.2552000  3
   6606   6605   6608   6619     1  0.0000000  1.2552000  3
   6607   6605   6608   6609     1  0.0000000  1.2552000  3
   6607   6605   6608   6619     1  0.0000000  1.2552000  3
   6608   6609   6612   6613     1  0.0000000  0.6508444  3
   6608   6609   6612   6614     1  0.0000000  0.6508444  3
   6608   6619   6622   6623     1  0.0000000  0.6508444  3
   6608   6619   6622   6624     1  0.0000000  0.6508444  3
   6609   6608   6619   6620     1  0.0000000  1.2552000  3
   6609   6608   6619   6621     1  0.0000000  1.2552000  3
   6610   6609   6612   6615     1  0.0000000  0.6508444  3
   6610   6609   6612   6613     1  0.0000000  0.6508444  3
   6610   6609   6612   6614     1  0.0000000  0.6508444  3
   6610   6609   6608   6619     1  0.0000000  1.2552000  3
   6611   6609   6612   6615     1  0.0000000  0.6508444  3
   6611   6609   6612   6613     1  0.0000000  0.6508444  3
   6611   6609   6612   6614     1  0.0000000  0.6508444  3
   6611   6609   6608   6619     1  0.0000000  1.2552000  3
   6612   6615   6617   6618     1  180.0000771  9.6232000  2
   6613   6612   6615   6616     1  0.0000000  3.3472000  1
   6613   6612   6615   6616     1  0.0000000  0.0000000  2
   6613   6612   6615   6616     1  180.0000771  0.3347200  3
   6613   6612   6615   6617     1  180.0000771  0.0000000  2
   6614   6612   6615   6616     1  0.0000000  3.3472000  1
   6614   6612   6615   6616     1  0.0000000  0.0000000  2
   6614   6612   6615   6616     1  180.0000771  0.3347200  3
   6614   6612   6615   6617     1  180.0000771  0.0000000  2
   6616   6615   6617   6618     1  0.0000000  7.9496000  1
   6616   6615   6617   6618     1  180.0000771  9.6232000  2
   6620   6619   6622   6625     1  0.0000000  0.6508444  3
   6620   6619   6622   6623     1  0.0000000  0.6508444  3
   6620   6619   6622   6624     1  0.0000000  0.6508444  3
   6621   6619   6622   6625     1  0.0000000  0.6508444  3
   6621   6619   6622   6623     1  0.0000000  0.6508444  3
   6621   6619   6622   6624     1  0.0000000  0.6508444  3
   6622   6625   6627   6628     1  180.0000771  9.6232000  2
   6623   6622   6625   6626     1  0.0000000  3.3472000  1
   6623   6622   6625   6626     1  0.0000000  0.0000000  2
   6623   6622   6625   6626     1  180.0000771  0.3347200  3
   6623   6622   6625   6627     1  180.0000771  0.0000000  2
   6624   6622   6625   6626     1  0.0000000  3.3472000  1
   6624   6622   6625   6626     1  0.0000000  0.0000000  2
   6624   6622   6625   6626     1  180.0000771  0.3347200  3
   6624   6622   6625   6627     1  180.0000771  0.0000000  2
   6626   6625   6627   6628     1  0.0000000  7.9496000  1
   6626   6625   6627   6628     1  180.0000771  9.6232000  2
   6630   6633   6636   6637     1  0.0000000  0.6508444  3
   6630   6633   6636   6638     1  0.0000000  0.6508444  3
   6631   6630   6633   6636     1  0.0000000  0.6508444  3
   6631   6630   6633   6634     1  0.0000000  0.6508444  3
   6631   6630   6633   6635     1  0.0000000  0.6508444  3
   6632   6630   6633   6636     1  0.0000000  0.6508444  3
   6632   6630   6633   6634     1  0.0000000  0.6508444  3
   6632   6630   6633   6635     1  0.0000000  0.6508444  3
   6634   6633   6630   6660     1  0.0000000  1.0460000  1
   6634   6633   6630   6660     1  0.0000000  0.0000000  3
   6634   6633   6636   6639     1  0.0000000  0.6508444  3
   6634   6633   6636   6637     1  0.0000000  0.6508444  3
   6634   6633   6636   6638     1  0.0000000  0.6508444  3
   6635   6633   6630   6660     1  0.0000000  1.0460000  1
   6635   6633   6630   6660     1  0.0000000  0.0000000  3
   6635   6633   6636   6639     1  0.0000000  0.6508444  3
   6635   6633   6636   6637     1  0.0000000  0.6508444  3
   6635   6633   6636   6638     1  0.0000000  0.6508444  3
   6636   6639   6640   6641     1  0.0000000  1.2552000  3
   6636   6639   6640   6642     1  0.0000000  1.2552000  3
   6636   6639   6650   6651     1  0.0000000  1.2552000  3
   6636   6639   6650   6652     1  0.0000000  1.2552000  3
   6637   6636   6639   6640     1  0.0000000  1.2552000  3
   6637   6636   6639   6650     1  0.0000000  1.2552000  3
   6638   6636   6639   6640     1  0.0000000  1.2552000  3
   6638   6636   6639   6650     1  0.0000000  1.2552000  3
   6639   6640   6643   6644     1  0.0000000  0.6508444  3
   6639   6640   6643   6645     1  0.0000000  0.6508444  3
   6639   6650   6653   6654     1  0.0000000  0.6508444  3
   6639   6650   6653   6655     1  0.0000000  0.6508444  3
   6640   6639   6650   6651     1  0.0000000  1.2552000  3
   6640   6639   6650   6652     1  0.0000000  1.2552000  3
   6641   6640   6639   6650     1  0.0000000  1.2552000  3
   6641   6640   6643   6646     1  0.0000000  0.6508444  3
   6641   6640   6643   6644     1  0.0000000  0.6508444  3
   6641   6640   6643   6645     1  0.0000000  0.6508444  3
   6642   6640   6639   6650     1  0.0000000  1.2552000  3
   6642   6640   6643   6646     1  0.0000000  0.6508444  3
   6642   6640   6643   6644     1  0.0000000  0.6508444  3
   6642   6640   6643   6645     1  0.0000000  0.6508444  3
   6643   6646   6648   6649     1  180.0000771  9.6232000  2
   6644   6643   6646   6647     1  0.0000000  3.3472000  1
   6644   6643   6646   6647     1  0.0000000  0.0000000  2
   6644   6643   6646   6647     1  180.0000771  0.3347200  3
   6644   6643   6646   6648     1  180.0000771  0.0000000  2
   6645   6643   6646   6647     1  0.0000000  3.3472000  1
   6645   6643   6646   6647     1  0.0000000  0.0000000  2
   6645   6643   6646   6647     1  180.0000771  0.3347200  3
   6645   6643   6646   6648     1  180.0000771  0.0000000  2
   6647   6646   6648   6649     1  0.0000000  7.9496000  1
   6647   6646   6648   6649     1  180.0000771  9.6232000  2
   6651   6650   6653   6656     1  0.0000000  0.6508444  3
   6651   6650   6653   6654     1  0.0000000  0.6508444  3
   6651   6650   6653   6655     1  0.0000000  0.6508444  3
   6652   6650   6653   6656     1  0.0000000  0.6508444  3
   6652   6650   6653   6654     1  0.0000000  0.6508444  3
   6652   6650   6653   6655     1  0.0000000  0.6508444  3
   6653   6656   6658   6659     1  180.0000771  9.6232000  2
   6654   6653   6656   6657     1  0.0000000  3.3472000  1
   6654   6653   6656   6657     1  0.0000000  0.0000000  2
   6654   6653   6656   6657     1  180.0000771  0.3347200  3
   6654   6653   6656   6658     1  180.0000771  0.0000000  2
   6655   6653   6656   6657     1  0.0000000  3.3472000  1
   6655   6653   6656   6657     1  0.0000000  0.0000000  2
   6655   6653   6656   6657     1  180.0000771  0.3347200  3
   6655   6653   6656   6658     1  180.0000771  0.0000000  2
   6657   6656   6658   6659     1  0.0000000  7.9496000  1
   6657   6656   6658   6659     1  180.0000771  9.6232000  2
   6661   6664   6667   6668     1  0.0000000  0.6508444  3
   6661   6664   6667   6669     1  0.0000000  0.6508444  3
   6662   6661   6664   6667     1  0.0000000  0.6508444  3
   6662   6661   6664   6665     1  0.0000000  0.6508444  3
   6662   6661   6664   6666     1  0.0000000  0.6508444  3
   6663   6661   6664   6667     1  0.0000000  0.6508444  3
   6663   6661   6664   6665     1  0.0000000  0.6508444  3
   6663   6661   6664   6666     1  0.0000000  0.6508444  3
   6665   6664   6667   6670     1  0.0000000  0.6508444  3
   6665   6664   6667   6668     1  0.0000000  0.6508444  3
   6665   6664   6667   6669     1  0.0000000  0.6508444  3
   6665   6664   6661   6691     1  0.0000000  1.0460000  1
   6665   6664   6661   6691     1  0.0000000  0.0000000  3
   6666   6664   6667   6670     1  0.0000000  0.6508444  3
   6666   6664   6667   6668     1  0.0000000  0.6508444  3
   6666   6664   6667   6669     1  0.0000000  0.6508444  3
   6666   6664   6661   6691     1  0.0000000  1.0460000  1
   6666   6664   6661   6691     1  0.0000000  0.0000000  3
   6667   6670   6671   6672     1  0.0000000  1.2552000  3
   6667   6670   6671   6673     1  0.0000000  1.2552000  3
   6667   6670   6681   6682     1  0.0000000  1.2552000  3
   6667   6670   6681   6683     1  0.0000000  1.2552000  3
   6668   6667   6670   6671     1  0.0000000  1.2552000  3
   6668   6667   6670   6681     1  0.0000000  1.2552000  3
   6669   6667   6670   6671     1  0.0000000  1.2552000  3
   6669   6667   6670   6681     1  0.0000000  1.2552000  3
   6670   6671   6674   6675     1  0.0000000  0.6508444  3
   6670   6671   6674   6676     1  0.0000000  0.6508444  3
   6670   6681   6684   6685     1  0.0000000  0.6508444  3
   6670   6681   6684   6686     1  0.0000000  0.6508444  3
   6671   6670   6681   6682     1  0.0000000  1.2552000  3
   6671   6670   6681   6683     1  0.0000000  1.2552000  3
   6672   6671   6674   6677     1  0.0000000  0.6508444  3
   6672   6671   6674   6675     1  0.0000000  0.6508444  3
   6672   6671   6674   6676     1  0.0000000  0.6508444  3
   6672   6671   6670   6681     1  0.0000000  1.2552000  3
   6673   6671   6674   6677     1  0.0000000  0.6508444  3
   6673   6671   6674   6675     1  0.0000000  0.6508444  3
   6673   6671   6674   6676     1  0.0000000  0.6508444  3
   6673   6671   6670   6681     1  0.0000000  1.2552000  3
   6674   6677   6679   6680     1  180.0000771  9.6232000  2
   6675   6674   6677   6678     1  0.0000000  3.3472000  1
   6675   6674   6677   6678     1  0.0000000  0.0000000  2
   6675   6674   6677   6678     1  180.0000771  0.3347200  3
   6675   6674   6677   6679     1  180.0000771  0.0000000  2
   6676   6674   6677   6678     1  0.0000000  3.3472000  1
   6676   6674   6677   6678     1  0.0000000  0.0000000  2
   6676   6674   6677   6678     1  180.0000771  0.3347200  3
   6676   6674   6677   6679     1  180.0000771  0.0000000  2
   6678   6677   6679   6680     1  0.0000000  7.9496000  1
   6678   6677   6679   6680     1  180.0000771  9.6232000  2
   6682   6681   6684   6687     1  0.0000000  0.6508444  3
   6682   6681   6684   6685     1  0.0000000  0.6508444  3
   6682   6681   6684   6686     1  0.0000000  0.6508444  3
   6683   6681   6684   6687     1  0.0000000  0.6508444  3
   6683   6681   6684   6685     1  0.0000000  0.6508444  3
   6683   6681   6684   6686     1  0.0000000  0.6508444  3
   6684   6687   6689   6690     1  180.0000771  9.6232000  2
   6685   6684   6687   6688     1  0.0000000  3.3472000  1
   6685   6684   6687   6688     1  0.0000000  0.0000000  2
   6685   6684   6687   6688     1  180.0000771  0.3347200  3
   6685   6684   6687   6689     1  180.0000771  0.0000000  2
   6686   6684   6687   6688     1  0.0000000  3.3472000  1
   6686   6684   6687   6688     1  0.0000000  0.0000000  2
   6686   6684   6687   6688     1  180.0000771  0.3347200  3
   6686   6684   6687   6689     1  180.0000771  0.0000000  2
   6688   6687   6689   6690     1  0.0000000  7.9496000  1
   6688   6687   6689   6690     1  180.0000771  9.6232000  2
   6692   6695   6698   6699     1  0.0000000  0.6508444  3
   6692   6695   6698   6700     1  0.0000000  0.6508444  3
   6693   6692   6695   6698     1  0.0000000  0.6508444  3
   6693   6692   6695   6696     1  0.0000000  0.6508444  3
   6693   6692   6695   6697     1  0.0000000  0.6508444  3
   6694   6692   6695   6698     1  0.0000000  0.6508444  3
   6694   6692   6695   6696     1  0.0000000  0.6508444  3
   6694   6692   6695   6697     1  0.0000000  0.6508444  3
   6696   6695   6692   6722     1  0.0000000  1.0460000  1
   6696   6695   6692   6722     1  0.0000000  0.0000000  3
   6696   6695   6698   6701     1  0.0000000  0.6508444  3
   6696   6695   6698   6699     1  0.0000000  0.6508444  3
   6696   6695   6698   6700     1  0.0000000  0.6508444  3
   6697   6695   6692   6722     1  0.0000000  1.0460000  1
   6697   6695   6692   6722     1  0.0000000  0.0000000  3
   6697   6695   6698   6701     1  0.0000000  0.6508444  3
   6697   6695   6698   6699     1  0.0000000  0.6508444  3
   6697   6695   6698   6700     1  0.0000000  0.6508444  3
   6698   6701   6702   6703     1  0.0000000  1.2552000  3
   6698   6701   6702   6704     1  0.0000000  1.2552000  3
   6698   6701   6712   6713     1  0.0000000  1.2552000  3
   6698   6701   6712   6714     1  0.0000000  1.2552000  3
   6699   6698   6701   6702     1  0.0000000  1.2552000  3
   6699   6698   6701   6712     1  0.0000000  1.2552000  3
   6700   6698   6701   6702     1  0.0000000  1.2552000  3
   6700   6698   6701   6712     1  0.0000000  1.2552000  3
   6701   6702   6705   6706     1  0.0000000  0.6508444  3
   6701   6702   6705   6707     1  0.0000000  0.6508444  3
   6701   6712   6715   6716     1  0.0000000  0.6508444  3
   6701   6712   6715   6717     1  0.0000000  0.6508444  3
   6702   6701   6712   6713     1  0.0000000  1.2552000  3
   6702   6701   6712   6714     1  0.0000000  1.2552000  3
   6703   6702   6701   6712     1  0.0000000  1.2552000  3
   6703   6702   6705   6708     1  0.0000000  0.6508444  3
   6703   6702   6705   6706     1  0.0000000  0.6508444  3
   6703   6702   6705   6707     1  0.0000000  0.6508444  3
   6704   6702   6701   6712     1  0.0000000  1.2552000  3
   6704   6702   6705   6708     1  0.0000000  0.6508444  3
   6704   6702   6705   6706     1  0.0000000  0.6508444  3
   6704   6702   6705   6707     1  0.0000000  0.6508444  3
   6705   6708   6710   6711     1  180.0000771  9.6232000  2
   6706   6705   6708   6709     1  0.0000000  3.3472000  1
   6706   6705   6708   6709     1  0.0000000  0.0000000  2
   6706   6705   6708   6709     1  180.0000771  0.3347200  3
   6706   6705   6708   6710     1  180.0000771  0.0000000  2
   6707   6705   6708   6709     1  0.0000000  3.3472000  1
   6707   6705   6708   6709     1  0.0000000  0.0000000  2
   6707   6705   6708   6709     1  180.0000771  0.3347200  3
   6707   6705   6708   6710     1  180.0000771  0.0000000  2
   6709   6708   6710   6711     1  0.0000000  7.9496000  1
   6709   6708   6710   6711     1  180.0000771  9.6232000  2
   6713   6712   6715   6718     1  0.0000000  0.6508444  3
   6713   6712   6715   6716     1  0.0000000  0.6508444  3
   6713   6712   6715   6717     1  0.0000000  0.6508444  3
   6714   6712   6715   6718     1  0.0000000  0.6508444  3
   6714   6712   6715   6716     1  0.0000000  0.6508444  3
   6714   6712   6715   6717     1  0.0000000  0.6508444  3
   6715   6718   6720   6721     1  180.0000771  9.6232000  2
   6716   6715   6718   6719     1  0.0000000  3.3472000  1
   6716   6715   6718   6719     1  0.0000000  0.0000000  2
   6716   6715   6718   6719     1  180.0000771  0.3347200  3
   6716   6715   6718   6720     1  180.0000771  0.0000000  2
   6717   6715   6718   6719     1  0.0000000  3.3472000  1
   6717   6715   6718   6719     1  0.0000000  0.0000000  2
   6717   6715   6718   6719     1  180.0000771  0.3347200  3
   6717   6715   6718   6720     1  180.0000771  0.0000000  2
   6719   6718   6720   6721     1  0.0000000  7.9496000  1
   6719   6718   6720   6721     1  180.0000771  9.6232000  2
   6723   6726   6729   6730     1  0.0000000  0.6508444  3
   6723   6726   6729   6731     1  0.0000000  0.6508444  3
   6724   6723   6726   6729     1  0.0000000  0.6508444  3
   6724   6723   6726   6727     1  0.0000000  0.6508444  3
   6724   6723   6726   6728     1  0.0000000  0.6508444  3
   6725   6723   6726   6729     1  0.0000000  0.6508444  3
   6725   6723   6726   6727     1  0.0000000  0.6508444  3
   6725   6723   6726   6728     1  0.0000000  0.6508444  3
   6727   6726   6729   6732     1  0.0000000  0.6508444  3
   6727   6726   6729   6730     1  0.0000000  0.6508444  3
   6727   6726   6729   6731     1  0.0000000  0.6508444  3
   6727   6726   6723   6753     1  0.0000000  1.0460000  1
   6727   6726   6723   6753     1  0.0000000  0.0000000  3
   6728   6726   6729   6732     1  0.0000000  0.6508444  3
   6728   6726   6729   6730     1  0.0000000  0.6508444  3
   6728   6726   6729   6731     1  0.0000000  0.6508444  3
   6728   6726   6723   6753     1  0.0000000  1.0460000  1
   6728   6726   6723   6753     1  0.0000000  0.0000000  3
   6729   6732   6733   6734     1  0.0000000  1.2552000  3
   6729   6732   6733   6735     1  0.0000000  1.2552000  3
   6729   6732   6743   6744     1  0.0000000  1.2552000  3
   6729   6732   6743   6745     1  0.0000000  1.2552000  3
   6730   6729   6732   6733     1  0.0000000  1.2552000  3
   6730   6729   6732   6743     1  0.0000000  1.2552000  3
   6731   6729   6732   6733     1  0.0000000  1.2552000  3
   6731   6729   6732   6743     1  0.0000000  1.2552000  3
   6732   6733   6736   6737     1  0.0000000  0.6508444  3
   6732   6733   6736   6738     1  0.0000000  0.6508444  3
   6732   6743   6746   6747     1  0.0000000  0.6508444  3
   6732   6743   6746   6748     1  0.0000000  0.6508444  3
   6733   6732   6743   6744     1  0.0000000  1.2552000  3
   6733   6732   6743   6745     1  0.0000000  1.2552000  3
   6734   6733   6736   6739     1  0.0000000  0.6508444  3
   6734   6733   6736   6737     1  0.0000000  0.6508444  3
   6734   6733   6736   6738     1  0.0000000  0.6508444  3
   6734   6733   6732   6743     1  0.0000000  1.2552000  3
   6735   6733   6736   6739     1  0.0000000  0.6508444  3
   6735   6733   6736   6737     1  0.0000000  0.6508444  3
   6735   6733   6736   6738     1  0.0000000  0.6508444  3
   6735   6733   6732   6743     1  0.0000000  1.2552000  3
   6736   6739   6741   6742     1  180.0000771  9.6232000  2
   6737   6736   6739   6740     1  0.0000000  3.3472000  1
   6737   6736   6739   6740     1  0.0000000  0.0000000  2
   6737   6736   6739   6740     1  180.0000771  0.3347200  3
   6737   6736   6739   6741     1  180.0000771  0.0000000  2
   6738   6736   6739   6740     1  0.0000000  3.3472000  1
   6738   6736   6739   6740     1  0.0000000  0.0000000  2
   6738   6736   6739   6740     1  180.0000771  0.3347200  3
   6738   6736   6739   6741     1  180.0000771  0.0000000  2
   6740   6739   6741   6742     1  0.0000000  7.9496000  1
   6740   6739   6741   6742     1  180.0000771  9.6232000  2
   6744   6743   6746   6749     1  0.0000000  0.6508444  3
   6744   6743   6746   6747     1  0.0000000  0.6508444  3
   6744   6743   6746   6748     1  0.0000000  0.6508444  3
   6745   6743   6746   6749     1  0.0000000  0.6508444  3
   6745   6743   6746   6747     1  0.0000000  0.6508444  3
   6745   6743   6746   6748     1  0.0000000  0.6508444  3
   6746   6749   6751   6752     1  180.0000771  9.6232000  2
   6747   6746   6749   6750     1  0.0000000  3.3472000  1
   6747   6746   6749   6750     1  0.0000000  0.0000000  2
   6747   6746   6749   6750     1  180.0000771  0.3347200  3
   6747   6746   6749   6751     1  180.0000771  0.0000000  2
   6748   6746   6749   6750     1  0.0000000  3.3472000  1
   6748   6746   6749   6750     1  0.0000000  0.0000000  2
   6748   6746   6749   6750     1  180.0000771  0.3347200  3
   6748   6746   6749   6751     1  180.0000771  0.0000000  2
   6750   6749   6751   6752     1  0.0000000  7.9496000  1
   6750   6749   6751   6752     1  180.0000771  9.6232000  2
   6754   6757   6760   6761     1  0.0000000  0.6508444  3
   6754   6757   6760   6762     1  0.0000000  0.6508444  3
   6755   6754   6757   6760     1  0.0000000  0.6508444  3
   6755   6754   6757   6758     1  0.0000000  0.6508444  3
   6755   6754   6757   6759     1  0.0000000  0.6508444  3
   6756   6754   6757   6760     1  0.0000000  0.6508444  3
   6756   6754   6757   6758     1  0.0000000  0.6508444  3
   6756   6754   6757   6759     1  0.0000000  0.6508444  3
   6758   6757   6754   6784     1  0.0000000  1.0460000  1
   6758   6757   6754   6784     1  0.0000000  0.0000000  3
   6758   6757   6760   6763     1  0.0000000  0.6508444  3
   6758   6757   6760   6761     1  0.0000000  0.6508444  3
   6758   6757   6760   6762     1  0.0000000  0.6508444  3
   6759   6757   6754   6784     1  0.0000000  1.0460000  1
   6759   6757   6754   6784     1  0.0000000  0.0000000  3
   6759   6757   6760   6763     1  0.0000000  0.6508444  3
   6759   6757   6760   6761     1  0.0000000  0.6508444  3
   6759   6757   6760   6762     1  0.0000000  0.6508444  3
   6760   6763   6764   6765     1  0.0000000  1.2552000  3
   6760   6763   6764   6766     1  0.0000000  1.2552000  3
   6760   6763   6774   6775     1  0.0000000  1.2552000  3
   6760   6763   6774   6776     1  0.0000000  1.2552000  3
   6761   6760   6763   6764     1  0.0000000  1.2552000  3
   6761   6760   6763   6774     1  0.0000000  1.2552000  3
   6762   6760   6763   6764     1  0.0000000  1.2552000  3
   6762   6760   6763   6774     1  0.0000000  1.2552000  3
   6763   6764   6767   6768     1  0.0000000  0.6508444  3
   6763   6764   6767   6769     1  0.0000000  0.6508444  3
   6763   6774   6777   6778     1  0.0000000  0.6508444  3
   6763   6774   6777   6779     1  0.0000000  0.6508444  3
   6764   6763   6774   6775     1  0.0000000  1.2552000  3
   6764   6763   6774   6776     1  0.0000000  1.2552000  3
   6765   6764   6763   6774     1  0.0000000  1.2552000  3
   6765   6764   6767   6770     1  0.0000000  0.6508444  3
   6765   6764   6767   6768     1  0.0000000  0.6508444  3
   6765   6764   6767   6769     1  0.0000000  0.6508444  3
   6766   6764   6763   6774     1  0.0000000  1.2552000  3
   6766   6764   6767   6770     1  0.0000000  0.6508444  3
   6766   6764   6767   6768     1  0.0000000  0.6508444  3
   6766   6764   6767   6769     1  0.0000000  0.6508444  3
   6767   6770   6772   6773     1  180.0000771  9.6232000  2
   6768   6767   6770   6771     1  0.0000000  3.3472000  1
   6768   6767   6770   6771     1  0.0000000  0.0000000  2
   6768   6767   6770   6771     1  180.0000771  0.3347200  3
   6768   6767   6770   6772     1  180.0000771  0.0000000  2
   6769   6767   6770   6771     1  0.0000000  3.3472000  1
   6769   6767   6770   6771     1  0.0000000  0.0000000  2
   6769   6767   6770   6771     1  180.0000771  0.3347200  3
   6769   6767   6770   6772     1  180.0000771  0.0000000  2
   6771   6770   6772   6773     1  0.0000000  7.9496000  1
   6771   6770   6772   6773     1  180.0000771  9.6232000  2
   6775   6774   6777   6780     1  0.0000000  0.6508444  3
   6775   6774   6777   6778     1  0.0000000  0.6508444  3
   6775   6774   6777   6779     1  0.0000000  0.6508444  3
   6776   6774   6777   6780     1  0.0000000  0.6508444  3
   6776   6774   6777   6778     1  0.0000000  0.6508444  3
   6776   6774   6777   6779     1  0.0000000  0.6508444  3
   6777   6780   6782   6783     1  180.0000771  9.6232000  2
   6778   6777   6780   6781     1  0.0000000  3.3472000  1
   6778   6777   6780   6781     1  0.0000000  0.0000000  2
   6778   6777   6780   6781     1  180.0000771  0.3347200  3
   6778   6777   6780   6782     1  180.0000771  0.0000000  2
   6779   6777   6780   6781     1  0.0000000  3.3472000  1
   6779   6777   6780   6781     1  0.0000000  0.0000000  2
   6779   6777   6780   6781     1  180.0000771  0.3347200  3
   6779   6777   6780   6782     1  180.0000771  0.0000000  2
   6781   6780   6782   6783     1  0.0000000  7.9496000  1
   6781   6780   6782   6783     1  180.0000771  9.6232000  2
   6785   6788   6791   6792     1  0.0000000  0.6508444  3
   6785   6788   6791   6793     1  0.0000000  0.6508444  3
   6786   6785   6788   6791     1  0.0000000  0.6508444  3
   6786   6785   6788   6789     1  0.0000000  0.6508444  3
   6786   6785   6788   6790     1  0.0000000  0.6508444  3
   6787   6785   6788   6791     1  0.0000000  0.6508444  3
   6787   6785   6788   6789     1  0.0000000  0.6508444  3
   6787   6785   6788   6790     1  0.0000000  0.6508444  3
   6789   6788   6791   6794     1  0.0000000  0.6508444  3
   6789   6788   6791   6792     1  0.0000000  0.6508444  3
   6789   6788   6791   6793     1  0.0000000  0.6508444  3
   6789   6788   6785   6815     1  0.0000000  1.0460000  1
   6789   6788   6785   6815     1  0.0000000  0.0000000  3
   6790   6788   6791   6794     1  0.0000000  0.6508444  3
   6790   6788   6791   6792     1  0.0000000  0.6508444  3
   6790   6788   6791   6793     1  0.0000000  0.6508444  3
   6790   6788   6785   6815     1  0.0000000  1.0460000  1
   6790   6788   6785   6815     1  0.0000000  0.0000000  3
   6791   6794   6795   6796     1  0.0000000  1.2552000  3
   6791   6794   6795   6797     1  0.0000000  1.2552000  3
   6791   6794   6805   6806     1  0.0000000  1.2552000  3
   6791   6794   6805   6807     1  0.0000000  1.2552000  3
   6792   6791   6794   6795     1  0.0000000  1.2552000  3
   6792   6791   6794   6805     1  0.0000000  1.2552000  3
   6793   6791   6794   6795     1  0.0000000  1.2552000  3
   6793   6791   6794   6805     1  0.0000000  1.2552000  3
   6794   6795   6798   6799     1  0.0000000  0.6508444  3
   6794   6795   6798   6800     1  0.0000000  0.6508444  3
   6794   6805   6808   6809     1  0.0000000  0.6508444  3
   6794   6805   6808   6810     1  0.0000000  0.6508444  3
   6795   6794   6805   6806     1  0.0000000  1.2552000  3
   6795   6794   6805   6807     1  0.0000000  1.2552000  3
   6796   6795   6798   6801     1  0.0000000  0.6508444  3
   6796   6795   6798   6799     1  0.0000000  0.6508444  3
   6796   6795   6798   6800     1  0.0000000  0.6508444  3
   6796   6795   6794   6805     1  0.0000000  1.2552000  3
   6797   6795   6798   6801     1  0.0000000  0.6508444  3
   6797   6795   6798   6799     1  0.0000000  0.6508444  3
   6797   6795   6798   6800     1  0.0000000  0.6508444  3
   6797   6795   6794   6805     1  0.0000000  1.2552000  3
   6798   6801   6803   6804     1  180.0000771  9.6232000  2
   6799   6798   6801   6802     1  0.0000000  3.3472000  1
   6799   6798   6801   6802     1  0.0000000  0.0000000  2
   6799   6798   6801   6802     1  180.0000771  0.3347200  3
   6799   6798   6801   6803     1  180.0000771  0.0000000  2
   6800   6798   6801   6802     1  0.0000000  3.3472000  1
   6800   6798   6801   6802     1  0.0000000  0.0000000  2
   6800   6798   6801   6802     1  180.0000771  0.3347200  3
   6800   6798   6801   6803     1  180.0000771  0.0000000  2
   6802   6801   6803   6804     1  0.0000000  7.9496000  1
   6802   6801   6803   6804     1  180.0000771  9.6232000  2
   6806   6805   6808   6811     1  0.0000000  0.6508444  3
   6806   6805   6808   6809     1  0.0000000  0.6508444  3
   6806   6805   6808   6810     1  0.0000000  0.6508444  3
   6807   6805   6808   6811     1  0.0000000  0.6508444  3
   6807   6805   6808   6809     1  0.0000000  0.6508444  3
   6807   6805   6808   6810     1  0.0000000  0.6508444  3
   6808   6811   6813   6814     1  180.0000771  9.6232000  2
   6809   6808   6811   6812     1  0.0000000  3.3472000  1
   6809   6808   6811   6812     1  0.0000000  0.0000000  2
   6809   6808   6811   6812     1  180.0000771  0.3347200  3
   6809   6808   6811   6813     1  180.0000771  0.0000000  2
   6810   6808   6811   6812     1  0.0000000  3.3472000  1
   6810   6808   6811   6812     1  0.0000000  0.0000000  2
   6810   6808   6811   6812     1  180.0000771  0.3347200  3
   6810   6808   6811   6813     1  180.0000771  0.0000000  2
   6812   6811   6813   6814     1  0.0000000  7.9496000  1
   6812   6811   6813   6814     1  180.0000771  9.6232000  2
   6816   6819   6822   6823     1  0.0000000  0.6508444  3
   6816   6819   6822   6824     1  0.0000000  0.6508444  3
   6817   6816   6819   6822     1  0.0000000  0.6508444  3
   6817   6816   6819   6820     1  0.0000000  0.6508444  3
   6817   6816   6819   6821     1  0.0000000  0.6508444  3
   6818   6816   6819   6822     1  0.0000000  0.6508444  3
   6818   6816   6819   6820     1  0.0000000  0.6508444  3
   6818   6816   6819   6821     1  0.0000000  0.6508444  3
   6820   6819   6816   6846     1  0.0000000  1.0460000  1
   6820   6819   6816   6846     1  0.0000000  0.0000000  3
   6820   6819   6822   6825     1  0.0000000  0.6508444  3
   6820   6819   6822   6823     1  0.0000000  0.6508444  3
   6820   6819   6822   6824     1  0.0000000  0.6508444  3
   6821   6819   6816   6846     1  0.0000000  1.0460000  1
   6821   6819   6816   6846     1  0.0000000  0.0000000  3
   6821   6819   6822   6825     1  0.0000000  0.6508444  3
   6821   6819   6822   6823     1  0.0000000  0.6508444  3
   6821   6819   6822   6824     1  0.0000000  0.6508444  3
   6822   6825   6826   6827     1  0.0000000  1.2552000  3
   6822   6825   6826   6828     1  0.0000000  1.2552000  3
   6822   6825   6836   6837     1  0.0000000  1.2552000  3
   6822   6825   6836   6838     1  0.0000000  1.2552000  3
   6823   6822   6825   6826     1  0.0000000  1.2552000  3
   6823   6822   6825   6836     1  0.0000000  1.2552000  3
   6824   6822   6825   6826     1  0.0000000  1.2552000  3
   6824   6822   6825   6836     1  0.0000000  1.2552000  3
   6825   6826   6829   6830     1  0.0000000  0.6508444  3
   6825   6826   6829   6831     1  0.0000000  0.6508444  3
   6825   6836   6839   6840     1  0.0000000  0.6508444  3
   6825   6836   6839   6841     1  0.0000000  0.6508444  3
   6826   6825   6836   6837     1  0.0000000  1.2552000  3
   6826   6825   6836   6838     1  0.0000000  1.2552000  3
   6827   6826   6825   6836     1  0.0000000  1.2552000  3
   6827   6826   6829   6832     1  0.0000000  0.6508444  3
   6827   6826   6829   6830     1  0.0000000  0.6508444  3
   6827   6826   6829   6831     1  0.0000000  0.6508444  3
   6828   6826   6825   6836     1  0.0000000  1.2552000  3
   6828   6826   6829   6832     1  0.0000000  0.6508444  3
   6828   6826   6829   6830     1  0.0000000  0.6508444  3
   6828   6826   6829   6831     1  0.0000000  0.6508444  3
   6829   6832   6834   6835     1  180.0000771  9.6232000  2
   6830   6829   6832   6833     1  0.0000000  3.3472000  1
   6830   6829   6832   6833     1  0.0000000  0.0000000  2
   6830   6829   6832   6833     1  180.0000771  0.3347200  3
   6830   6829   6832   6834     1  180.0000771  0.0000000  2
   6831   6829   6832   6833     1  0.0000000  3.3472000  1
   6831   6829   6832   6833     1  0.0000000  0.0000000  2
   6831   6829   6832   6833     1  180.0000771  0.3347200  3
   6831   6829   6832   6834     1  180.0000771  0.0000000  2
   6833   6832   6834   6835     1  0.0000000  7.9496000  1
   6833   6832   6834   6835     1  180.0000771  9.6232000  2
   6837   6836   6839   6842     1  0.0000000  0.6508444  3
   6837   6836   6839   6840     1  0.0000000  0.6508444  3
   6837   6836   6839   6841     1  0.0000000  0.6508444  3
   6838   6836   6839   6842     1  0.0000000  0.6508444  3
   6838   6836   6839   6840     1  0.0000000  0.6508444  3
   6838   6836   6839   6841     1  0.0000000  0.6508444  3
   6839   6842   6844   6845     1  180.0000771  9.6232000  2
   6840   6839   6842   6843     1  0.0000000  3.3472000  1
   6840   6839   6842   6843     1  0.0000000  0.0000000  2
   6840   6839   6842   6843     1  180.0000771  0.3347200  3
   6840   6839   6842   6844     1  180.0000771  0.0000000  2
   6841   6839   6842   6843     1  0.0000000  3.3472000  1
   6841   6839   6842   6843     1  0.0000000  0.0000000  2
   6841   6839   6842   6843     1  180.0000771  0.3347200  3
   6841   6839   6842   6844     1  180.0000771  0.0000000  2
   6843   6842   6844   6845     1  0.0000000  7.9496000  1
   6843   6842   6844   6845     1  180.0000771  9.6232000  2
   6847   6850   6853   6854     1  0.0000000  0.6508444  3
   6847   6850   6853   6855     1  0.0000000  0.6508444  3
   6848   6847   6850   6853     1  0.0000000  0.6508444  3
   6848   6847   6850   6851     1  0.0000000  0.6508444  3
   6848   6847   6850   6852     1  0.0000000  0.6508444  3
   6849   6847   6850   6853     1  0.0000000  0.6508444  3
   6849   6847   6850   6851     1  0.0000000  0.6508444  3
   6849   6847   6850   6852     1  0.0000000  0.6508444  3
   6851   6850   6853   6856     1  0.0000000  0.6508444  3
   6851   6850   6853   6854     1  0.0000000  0.6508444  3
   6851   6850   6853   6855     1  0.0000000  0.6508444  3
   6851   6850   6847   6877     1  0.0000000  1.0460000  1
   6851   6850   6847   6877     1  0.0000000  0.0000000  3
   6852   6850   6853   6856     1  0.0000000  0.6508444  3
   6852   6850   6853   6854     1  0.0000000  0.6508444  3
   6852   6850   6853   6855     1  0.0000000  0.6508444  3
   6852   6850   6847   6877     1  0.0000000  1.0460000  1
   6852   6850   6847   6877     1  0.0000000  0.0000000  3
   6853   6856   6857   6858     1  0.0000000  1.2552000  3
   6853   6856   6857   6859     1  0.0000000  1.2552000  3
   6853   6856   6867   6868     1  0.0000000  1.2552000  3
   6853   6856   6867   6869     1  0.0000000  1.2552000  3
   6854   6853   6856   6857     1  0.0000000  1.2552000  3
   6854   6853   6856   6867     1  0.0000000  1.2552000  3
   6855   6853   6856   6857     1  0.0000000  1.2552000  3
   6855   6853   6856   6867     1  0.0000000  1.2552000  3
   6856   6857   6860   6861     1  0.0000000  0.6508444  3
   6856   6857   6860   6862     1  0.0000000  0.6508444  3
   6856   6867   6870   6871     1  0.0000000  0.6508444  3
   6856   6867   6870   6872     1  0.0000000  0.6508444  3
   6857   6856   6867   6868     1  0.0000000  1.2552000  3
   6857   6856   6867   6869     1  0.0000000  1.2552000  3
   6858   6857   6860   6863     1  0.0000000  0.6508444  3
   6858   6857   6860   6861     1  0.0000000  0.6508444  3
   6858   6857   6860   6862     1  0.0000000  0.6508444  3
   6858   6857   6856   6867     1  0.0000000  1.2552000  3
   6859   6857   6860   6863     1  0.0000000  0.6508444  3
   6859   6857   6860   6861     1  0.0000000  0.6508444  3
   6859   6857   6860   6862     1  0.0000000  0.6508444  3
   6859   6857   6856   6867     1  0.0000000  1.2552000  3
   6860   6863   6865   6866     1  180.0000771  9.6232000  2
   6861   6860   6863   6864     1  0.0000000  3.3472000  1
   6861   6860   6863   6864     1  0.0000000  0.0000000  2
   6861   6860   6863   6864     1  180.0000771  0.3347200  3
   6861   6860   6863   6865     1  180.0000771  0.0000000  2
   6862   6860   6863   6864     1  0.0000000  3.3472000  1
   6862   6860   6863   6864     1  0.0000000  0.0000000  2
   6862   6860   6863   6864     1  180.0000771  0.3347200  3
   6862   6860   6863   6865     1  180.0000771  0.0000000  2
   6864   6863   6865   6866     1  0.0000000  7.9496000  1
   6864   6863   6865   6866     1  180.0000771  9.6232000  2
   6868   6867   6870   6873     1  0.0000000  0.6508444  3
   6868   6867   6870   6871     1  0.0000000  0.6508444  3
   6868   6867   6870   6872     1  0.0000000  0.6508444  3
   6869   6867   6870   6873     1  0.0000000  0.6508444  3
   6869   6867   6870   6871     1  0.0000000  0.6508444  3
   6869   6867   6870   6872     1  0.0000000  0.6508444  3
   6870   6873   6875   6876     1  180.0000771  9.6232000  2
   6871   6870   6873   6874     1  0.0000000  3.3472000  1
   6871   6870   6873   6874     1  0.0000000  0.0000000  2
   6871   6870   6873   6874     1  180.0000771  0.3347200  3
   6871   6870   6873   6875     1  180.0000771  0.0000000  2
   6872   6870   6873   6874     1  0.0000000  3.3472000  1
   6872   6870   6873   6874     1  0.0000000  0.0000000  2
   6872   6870   6873   6874     1  180.0000771  0.3347200  3
   6872   6870   6873   6875     1  180.0000771  0.0000000  2
   6874   6873   6875   6876     1  0.0000000  7.9496000  1
   6874   6873   6875   6876     1  180.0000771  9.6232000  2
   6878   6881   6884   6885     1  0.0000000  0.6508444  3
   6878   6881   6884   6886     1  0.0000000  0.6508444  3
   6879   6878   6881   6884     1  0.0000000  0.6508444  3
   6879   6878   6881   6882     1  0.0000000  0.6508444  3
   6879   6878   6881   6883     1  0.0000000  0.6508444  3
   6880   6878   6881   6884     1  0.0000000  0.6508444  3
   6880   6878   6881   6882     1  0.0000000  0.6508444  3
   6880   6878   6881   6883     1  0.0000000  0.6508444  3
   6882   6881   6878   6908     1  0.0000000  1.0460000  1
   6882   6881   6878   6908     1  0.0000000  0.0000000  3
   6882   6881   6884   6887     1  0.0000000  0.6508444  3
   6882   6881   6884   6885     1  0.0000000  0.6508444  3
   6882   6881   6884   6886     1  0.0000000  0.6508444  3
   6883   6881   6878   6908     1  0.0000000  1.0460000  1
   6883   6881   6878   6908     1  0.0000000  0.0000000  3
   6883   6881   6884   6887     1  0.0000000  0.6508444  3
   6883   6881   6884   6885     1  0.0000000  0.6508444  3
   6883   6881   6884   6886     1  0.0000000  0.6508444  3
   6884   6887   6888   6889     1  0.0000000  1.2552000  3
   6884   6887   6888   6890     1  0.0000000  1.2552000  3
   6884   6887   6898   6899     1  0.0000000  1.2552000  3
   6884   6887   6898   6900     1  0.0000000  1.2552000  3
   6885   6884   6887   6888     1  0.0000000  1.2552000  3
   6885   6884   6887   6898     1  0.0000000  1.2552000  3
   6886   6884   6887   6888     1  0.0000000  1.2552000  3
   6886   6884   6887   6898     1  0.0000000  1.2552000  3
   6887   6888   6891   6892     1  0.0000000  0.6508444  3
   6887   6888   6891   6893     1  0.0000000  0.6508444  3
   6887   6898   6901   6902     1  0.0000000  0.6508444  3
   6887   6898   6901   6903     1  0.0000000  0.6508444  3
   6888   6887   6898   6899     1  0.0000000  1.2552000  3
   6888   6887   6898   6900     1  0.0000000  1.2552000  3
   6889   6888   6887   6898     1  0.0000000  1.2552000  3
   6889   6888   6891   6894     1  0.0000000  0.6508444  3
   6889   6888   6891   6892     1  0.0000000  0.6508444  3
   6889   6888   6891   6893     1  0.0000000  0.6508444  3
   6890   6888   6887   6898     1  0.0000000  1.2552000  3
   6890   6888   6891   6894     1  0.0000000  0.6508444  3
   6890   6888   6891   6892     1  0.0000000  0.6508444  3
   6890   6888   6891   6893     1  0.0000000  0.6508444  3
   6891   6894   6896   6897     1  180.0000771  9.6232000  2
   6892   6891   6894   6895     1  0.0000000  3.3472000  1
   6892   6891   6894   6895     1  0.0000000  0.0000000  2
   6892   6891   6894   6895     1  180.0000771  0.3347200  3
   6892   6891   6894   6896     1  180.0000771  0.0000000  2
   6893   6891   6894   6895     1  0.0000000  3.3472000  1
   6893   6891   6894   6895     1  0.0000000  0.0000000  2
   6893   6891   6894   6895     1  180.0000771  0.3347200  3
   6893   6891   6894   6896     1  180.0000771  0.0000000  2
   6895   6894   6896   6897     1  0.0000000  7.9496000  1
   6895   6894   6896   6897     1  180.0000771  9.6232000  2
   6899   6898   6901   6904     1  0.0000000  0.6508444  3
   6899   6898   6901   6902     1  0.0000000  0.6508444  3
   6899   6898   6901   6903     1  0.0000000  0.6508444  3
   6900   6898   6901   6904     1  0.0000000  0.6508444  3
   6900   6898   6901   6902     1  0.0000000  0.6508444  3
   6900   6898   6901   6903     1  0.0000000  0.6508444  3
   6901   6904   6906   6907     1  180.0000771  9.6232000  2
   6902   6901   6904   6905     1  0.0000000  3.3472000  1
   6902   6901   6904   6905     1  0.0000000  0.0000000  2
   6902   6901   6904   6905     1  180.0000771  0.3347200  3
   6902   6901   6904   6906     1  180.0000771  0.0000000  2
   6903   6901   6904   6905     1  0.0000000  3.3472000  1
   6903   6901   6904   6905     1  0.0000000  0.0000000  2
   6903   6901   6904   6905     1  180.0000771  0.3347200  3
   6903   6901   6904   6906     1  180.0000771  0.0000000  2
   6905   6904   6906   6907     1  0.0000000  7.9496000  1
   6905   6904   6906   6907     1  180.0000771  9.6232000  2
   6909   6912   6915   6916     1  0.0000000  0.6508444  3
   6909   6912   6915   6917     1  0.0000000  0.6508444  3
   6910   6909   6912   6915     1  0.0000000  0.6508444  3
   6910   6909   6912   6913     1  0.0000000  0.6508444  3
   6910   6909   6912   6914     1  0.0000000  0.6508444  3
   6911   6909   6912   6915     1  0.0000000  0.6508444  3
   6911   6909   6912   6913     1  0.0000000  0.6508444  3
   6911   6909   6912   6914     1  0.0000000  0.6508444  3
   6913   6912   6915   6918     1  0.0000000  0.6508444  3
   6913   6912   6915   6916     1  0.0000000  0.6508444  3
   6913   6912   6915   6917     1  0.0000000  0.6508444  3
   6913   6912   6909   6939     1  0.0000000  1.0460000  1
   6913   6912   6909   6939     1  0.0000000  0.0000000  3
   6914   6912   6915   6918     1  0.0000000  0.6508444  3
   6914   6912   6915   6916     1  0.0000000  0.6508444  3
   6914   6912   6915   6917     1  0.0000000  0.6508444  3
   6914   6912   6909   6939     1  0.0000000  1.0460000  1
   6914   6912   6909   6939     1  0.0000000  0.0000000  3
   6915   6918   6919   6920     1  0.0000000  1.2552000  3
   6915   6918   6919   6921     1  0.0000000  1.2552000  3
   6915   6918   6929   6930     1  0.0000000  1.2552000  3
   6915   6918   6929   6931     1  0.0000000  1.2552000  3
   6916   6915   6918   6919     1  0.0000000  1.2552000  3
   6916   6915   6918   6929     1  0.0000000  1.2552000  3
   6917   6915   6918   6919     1  0.0000000  1.2552000  3
   6917   6915   6918   6929     1  0.0000000  1.2552000  3
   6918   6919   6922   6923     1  0.0000000  0.6508444  3
   6918   6919   6922   6924     1  0.0000000  0.6508444  3
   6918   6929   6932   6933     1  0.0000000  0.6508444  3
   6918   6929   6932   6934     1  0.0000000  0.6508444  3
   6919   6918   6929   6930     1  0.0000000  1.2552000  3
   6919   6918   6929   6931     1  0.0000000  1.2552000  3
   6920   6919   6922   6925     1  0.0000000  0.6508444  3
   6920   6919   6922   6923     1  0.0000000  0.6508444  3
   6920   6919   6922   6924     1  0.0000000  0.6508444  3
   6920   6919   6918   6929     1  0.0000000  1.2552000  3
   6921   6919   6922   6925     1  0.0000000  0.6508444  3
   6921   6919   6922   6923     1  0.0000000  0.6508444  3
   6921   6919   6922   6924     1  0.0000000  0.6508444  3
   6921   6919   6918   6929     1  0.0000000  1.2552000  3
   6922   6925   6927   6928     1  180.0000771  9.6232000  2
   6923   6922   6925   6926     1  0.0000000  3.3472000  1
   6923   6922   6925   6926     1  0.0000000  0.0000000  2
   6923   6922   6925   6926     1  180.0000771  0.3347200  3
   6923   6922   6925   6927     1  180.0000771  0.0000000  2
   6924   6922   6925   6926     1  0.0000000  3.3472000  1
   6924   6922   6925   6926     1  0.0000000  0.0000000  2
   6924   6922   6925   6926     1  180.0000771  0.3347200  3
   6924   6922   6925   6927     1  180.0000771  0.0000000  2
   6926   6925   6927   6928     1  0.0000000  7.9496000  1
   6926   6925   6927   6928     1  180.0000771  9.6232000  2
   6930   6929   6932   6935     1  0.0000000  0.6508444  3
   6930   6929   6932   6933     1  0.0000000  0.6508444  3
   6930   6929   6932   6934     1  0.0000000  0.6508444  3
   6931   6929   6932   6935     1  0.0000000  0.6508444  3
   6931   6929   6932   6933     1  0.0000000  0.6508444  3
   6931   6929   6932   6934     1  0.0000000  0.6508444  3
   6932   6935   6937   6938     1  180.0000771  9.6232000  2
   6933   6932   6935   6936     1  0.0000000  3.3472000  1
   6933   6932   6935   6936     1  0.0000000  0.0000000  2
   6933   6932   6935   6936     1  180.0000771  0.3347200  3
   6933   6932   6935   6937     1  180.0000771  0.0000000  2
   6934   6932   6935   6936     1  0.0000000  3.3472000  1
   6934   6932   6935   6936     1  0.0000000  0.0000000  2
   6934   6932   6935   6936     1  180.0000771  0.3347200  3
   6934   6932   6935   6937     1  180.0000771  0.0000000  2
   6936   6935   6937   6938     1  0.0000000  7.9496000  1
   6936   6935   6937   6938     1  180.0000771  9.6232000  2
   6940   6943   6946   6947     1  0.0000000  0.6508444  3
   6940   6943   6946   6948     1  0.0000000  0.6508444  3
   6941   6940   6943   6946     1  0.0000000  0.6508444  3
   6941   6940   6943   6944     1  0.0000000  0.6508444  3
   6941   6940   6943   6945     1  0.0000000  0.6508444  3
   6942   6940   6943   6946     1  0.0000000  0.6508444  3
   6942   6940   6943   6944     1  0.0000000  0.6508444  3
   6942   6940   6943   6945     1  0.0000000  0.6508444  3
   6944   6943   6940   6970     1  0.0000000  1.0460000  1
   6944   6943   6940   6970     1  0.0000000  0.0000000  3
   6944   6943   6946   6949     1  0.0000000  0.6508444  3
   6944   6943   6946   6947     1  0.0000000  0.6508444  3
   6944   6943   6946   6948     1  0.0000000  0.6508444  3
   6945   6943   6940   6970     1  0.0000000  1.0460000  1
   6945   6943   6940   6970     1  0.0000000  0.0000000  3
   6945   6943   6946   6949     1  0.0000000  0.6508444  3
   6945   6943   6946   6947     1  0.0000000  0.6508444  3
   6945   6943   6946   6948     1  0.0000000  0.6508444  3
   6946   6949   6950   6951     1  0.0000000  1.2552000  3
   6946   6949   6950   6952     1  0.0000000  1.2552000  3
   6946   6949   6960   6961     1  0.0000000  1.2552000  3
   6946   6949   6960   6962     1  0.0000000  1.2552000  3
   6947   6946   6949   6950     1  0.0000000  1.2552000  3
   6947   6946   6949   6960     1  0.0000000  1.2552000  3
   6948   6946   6949   6950     1  0.0000000  1.2552000  3
   6948   6946   6949   6960     1  0.0000000  1.2552000  3
   6949   6950   6953   6954     1  0.0000000  0.6508444  3
   6949   6950   6953   6955     1  0.0000000  0.6508444  3
   6949   6960   6963   6964     1  0.0000000  0.6508444  3
   6949   6960   6963   6965     1  0.0000000  0.6508444  3
   6950   6949   6960   6961     1  0.0000000  1.2552000  3
   6950   6949   6960   6962     1  0.0000000  1.2552000  3
   6951   6950   6949   6960     1  0.0000000  1.2552000  3
   6951   6950   6953   6956     1  0.0000000  0.6508444  3
   6951   6950   6953   6954     1  0.0000000  0.6508444  3
   6951   6950   6953   6955     1  0.0000000  0.6508444  3
   6952   6950   6949   6960     1  0.0000000  1.2552000  3
   6952   6950   6953   6956     1  0.0000000  0.6508444  3
   6952   6950   6953   6954     1  0.0000000  0.6508444  3
   6952   6950   6953   6955     1  0.0000000  0.6508444  3
   6953   6956   6958   6959     1  180.0000771  9.6232000  2
   6954   6953   6956   6957     1  0.0000000  3.3472000  1
   6954   6953   6956   6957     1  0.0000000  0.0000000  2
   6954   6953   6956   6957     1  180.0000771  0.3347200  3
   6954   6953   6956   6958     1  180.0000771  0.0000000  2
   6955   6953   6956   6957     1  0.0000000  3.3472000  1
   6955   6953   6956   6957     1  0.0000000  0.0000000  2
   6955   6953   6956   6957     1  180.0000771  0.3347200  3
   6955   6953   6956   6958     1  180.0000771  0.0000000  2
   6957   6956   6958   6959     1  0.0000000  7.9496000  1
   6957   6956   6958   6959     1  180.0000771  9.6232000  2
   6961   6960   6963   6966     1  0.0000000  0.6508444  3
   6961   6960   6963   6964     1  0.0000000  0.6508444  3
   6961   6960   6963   6965     1  0.0000000  0.6508444  3
   6962   6960   6963   6966     1  0.0000000  0.6508444  3
   6962   6960   6963   6964     1  0.0000000  0.6508444  3
   6962   6960   6963   6965     1  0.0000000  0.6508444  3
   6963   6966   6968   6969     1  180.0000771  9.6232000  2
   6964   6963   6966   6967     1  0.0000000  3.3472000  1
   6964   6963   6966   6967     1  0.0000000  0.0000000  2
   6964   6963   6966   6967     1  180.0000771  0.3347200  3
   6964   6963   6966   6968     1  180.0000771  0.0000000  2
   6965   6963   6966   6967     1  0.0000000  3.3472000  1
   6965   6963   6966   6967     1  0.0000000  0.0000000  2
   6965   6963   6966   6967     1  180.0000771  0.3347200  3
   6965   6963   6966   6968     1  180.0000771  0.0000000  2
   6967   6966   6968   6969     1  0.0000000  7.9496000  1
   6967   6966   6968   6969     1  180.0000771  9.6232000  2
   6971   6974   6977   6978     1  0.0000000  0.6508444  3
   6971   6974   6977   6979     1  0.0000000  0.6508444  3
   6972   6971   6974   6977     1  0.0000000  0.6508444  3
   6972   6971   6974   6975     1  0.0000000  0.6508444  3
   6972   6971   6974   6976     1  0.0000000  0.6508444  3
   6973   6971   6974   6977     1  0.0000000  0.6508444  3
   6973   6971   6974   6975     1  0.0000000  0.6508444  3
   6973   6971   6974   6976     1  0.0000000  0.6508444  3
   6975   6974   6977   6980     1  0.0000000  0.6508444  3
   6975   6974   6977   6978     1  0.0000000  0.6508444  3
   6975   6974   6977   6979     1  0.0000000  0.6508444  3
   6975   6974   6971   7001     1  0.0000000  1.0460000  1
   6975   6974   6971   7001     1  0.0000000  0.0000000  3
   6976   6974   6977   6980     1  0.0000000  0.6508444  3
   6976   6974   6977   6978     1  0.0000000  0.6508444  3
   6976   6974   6977   6979     1  0.0000000  0.6508444  3
   6976   6974   6971   7001     1  0.0000000  1.0460000  1
   6976   6974   6971   7001     1  0.0000000  0.0000000  3
   6977   6980   6981   6982     1  0.0000000  1.2552000  3
   6977   6980   6981   6983     1  0.0000000  1.2552000  3
   6977   6980   6991   6992     1  0.0000000  1.2552000  3
   6977   6980   6991   6993     1  0.0000000  1.2552000  3
   6978   6977   6980   6981     1  0.0000000  1.2552000  3
   6978   6977   6980   6991     1  0.0000000  1.2552000  3
   6979   6977   6980   6981     1  0.0000000  1.2552000  3
   6979   6977   6980   6991     1  0.0000000  1.2552000  3
   6980   6981   6984   6985     1  0.0000000  0.6508444  3
   6980   6981   6984   6986     1  0.0000000  0.6508444  3
   6980   6991   6994   6995     1  0.0000000  0.6508444  3
   6980   6991   6994   6996     1  0.0000000  0.6508444  3
   6981   6980   6991   6992     1  0.0000000  1.2552000  3
   6981   6980   6991   6993     1  0.0000000  1.2552000  3
   6982   6981   6984   6987     1  0.0000000  0.6508444  3
   6982   6981   6984   6985     1  0.0000000  0.6508444  3
   6982   6981   6984   6986     1  0.0000000  0.6508444  3
   6982   6981   6980   6991     1  0.0000000  1.2552000  3
   6983   6981   6984   6987     1  0.0000000  0.6508444  3
   6983   6981   6984   6985     1  0.0000000  0.6508444  3
   6983   6981   6984   6986     1  0.0000000  0.6508444  3
   6983   6981   6980   6991     1  0.0000000  1.2552000  3
   6984   6987   6989   6990     1  180.0000771  9.6232000  2
   6985   6984   6987   6988     1  0.0000000  3.3472000  1
   6985   6984   6987   6988     1  0.0000000  0.0000000  2
   6985   6984   6987   6988     1  180.0000771  0.3347200  3
   6985   6984   6987   6989     1  180.0000771  0.0000000  2
   6986   6984   6987   6988     1  0.0000000  3.3472000  1
   6986   6984   6987   6988     1  0.0000000  0.0000000  2
   6986   6984   6987   6988     1  180.0000771  0.3347200  3
   6986   6984   6987   6989     1  180.0000771  0.0000000  2
   6988   6987   6989   6990     1  0.0000000  7.9496000  1
   6988   6987   6989   6990     1  180.0000771  9.6232000  2
   6992   6991   6994   6997     1  0.0000000  0.6508444  3
   6992   6991   6994   6995     1  0.0000000  0.6508444  3
   6992   6991   6994   6996     1  0.0000000  0.6508444  3
   6993   6991   6994   6997     1  0.0000000  0.6508444  3
   6993   6991   6994   6995     1  0.0000000  0.6508444  3
   6993   6991   6994   6996     1  0.0000000  0.6508444  3
   6994   6997   6999   7000     1  180.0000771  9.6232000  2
   6995   6994   6997   6998     1  0.0000000  3.3472000  1
   6995   6994   6997   6998     1  0.0000000  0.0000000  2
   6995   6994   6997   6998     1  180.0000771  0.3347200  3
   6995   6994   6997   6999     1  180.0000771  0.0000000  2
   6996   6994   6997   6998     1  0.0000000  3.3472000  1
   6996   6994   6997   6998     1  0.0000000  0.0000000  2
   6996   6994   6997   6998     1  180.0000771  0.3347200  3
   6996   6994   6997   6999     1  180.0000771  0.0000000  2
   6998   6997   6999   7000     1  0.0000000  7.9496000  1
   6998   6997   6999   7000     1  180.0000771  9.6232000  2
   7002   7005   7008   7009     1  0.0000000  0.6508444  3
   7002   7005   7008   7010     1  0.0000000  0.6508444  3
   7003   7002   7005   7008     1  0.0000000  0.6508444  3
   7003   7002   7005   7006     1  0.0000000  0.6508444  3
   7003   7002   7005   7007     1  0.0000000  0.6508444  3
   7004   7002   7005   7008     1  0.0000000  0.6508444  3
   7004   7002   7005   7006     1  0.0000000  0.6508444  3
   7004   7002   7005   7007     1  0.0000000  0.6508444  3
   7006   7005   7002   7032     1  0.0000000  1.0460000  1
   7006   7005   7002   7032     1  0.0000000  0.0000000  3
   7006   7005   7008   7011     1  0.0000000  0.6508444  3
   7006   7005   7008   7009     1  0.0000000  0.6508444  3
   7006   7005   7008   7010     1  0.0000000  0.6508444  3
   7007   7005   7002   7032     1  0.0000000  1.0460000  1
   7007   7005   7002   7032     1  0.0000000  0.0000000  3
   7007   7005   7008   7011     1  0.0000000  0.6508444  3
   7007   7005   7008   7009     1  0.0000000  0.6508444  3
   7007   7005   7008   7010     1  0.0000000  0.6508444  3
   7008   7011   7012   7013     1  0.0000000  1.2552000  3
   7008   7011   7012   7014     1  0.0000000  1.2552000  3
   7008   7011   7022   7023     1  0.0000000  1.2552000  3
   7008   7011   7022   7024     1  0.0000000  1.2552000  3
   7009   7008   7011   7012     1  0.0000000  1.2552000  3
   7009   7008   7011   7022     1  0.0000000  1.2552000  3
   7010   7008   7011   7012     1  0.0000000  1.2552000  3
   7010   7008   7011   7022     1  0.0000000  1.2552000  3
   7011   7012   7015   7016     1  0.0000000  0.6508444  3
   7011   7012   7015   7017     1  0.0000000  0.6508444  3
   7011   7022   7025   7026     1  0.0000000  0.6508444  3
   7011   7022   7025   7027     1  0.0000000  0.6508444  3
   7012   7011   7022   7023     1  0.0000000  1.2552000  3
   7012   7011   7022   7024     1  0.0000000  1.2552000  3
   7013   7012   7011   7022     1  0.0000000  1.2552000  3
   7013   7012   7015   7018     1  0.0000000  0.6508444  3
   7013   7012   7015   7016     1  0.0000000  0.6508444  3
   7013   7012   7015   7017     1  0.0000000  0.6508444  3
   7014   7012   7011   7022     1  0.0000000  1.2552000  3
   7014   7012   7015   7018     1  0.0000000  0.6508444  3
   7014   7012   7015   7016     1  0.0000000  0.6508444  3
   7014   7012   7015   7017     1  0.0000000  0.6508444  3
   7015   7018   7020   7021     1  180.0000771  9.6232000  2
   7016   7015   7018   7019     1  0.0000000  3.3472000  1
   7016   7015   7018   7019     1  0.0000000  0.0000000  2
   7016   7015   7018   7019     1  180.0000771  0.3347200  3
   7016   7015   7018   7020     1  180.0000771  0.0000000  2
   7017   7015   7018   7019     1  0.0000000  3.3472000  1
   7017   7015   7018   7019     1  0.0000000  0.0000000  2
   7017   7015   7018   7019     1  180.0000771  0.3347200  3
   7017   7015   7018   7020     1  180.0000771  0.0000000  2
   7019   7018   7020   7021     1  0.0000000  7.9496000  1
   7019   7018   7020   7021     1  180.0000771  9.6232000  2
   7023   7022   7025   7028     1  0.0000000  0.6508444  3
   7023   7022   7025   7026     1  0.0000000  0.6508444  3
   7023   7022   7025   7027     1  0.0000000  0.6508444  3
   7024   7022   7025   7028     1  0.0000000  0.6508444  3
   7024   7022   7025   7026     1  0.0000000  0.6508444  3
   7024   7022   7025   7027     1  0.0000000  0.6508444  3
   7025   7028   7030   7031     1  180.0000771  9.6232000  2
   7026   7025   7028   7029     1  0.0000000  3.3472000  1
   7026   7025   7028   7029     1  0.0000000  0.0000000  2
   7026   7025   7028   7029     1  180.0000771  0.3347200  3
   7026   7025   7028   7030     1  180.0000771  0.0000000  2
   7027   7025   7028   7029     1  0.0000000  3.3472000  1
   7027   7025   7028   7029     1  0.0000000  0.0000000  2
   7027   7025   7028   7029     1  180.0000771  0.3347200  3
   7027   7025   7028   7030     1  180.0000771  0.0000000  2
   7029   7028   7030   7031     1  0.0000000  7.9496000  1
   7029   7028   7030   7031     1  180.0000771  9.6232000  2
   7033   7036   7039   7040     1  0.0000000  0.6508444  3
   7033   7036   7039   7041     1  0.0000000  0.6508444  3
   7034   7033   7036   7039     1  0.0000000  0.6508444  3
   7034   7033   7036   7037     1  0.0000000  0.6508444  3
   7034   7033   7036   7038     1  0.0000000  0.6508444  3
   7035   7033   7036   7039     1  0.0000000  0.6508444  3
   7035   7033   7036   7037     1  0.0000000  0.6508444  3
   7035   7033   7036   7038     1  0.0000000  0.6508444  3
   7037   7036   7039   7042     1  0.0000000  0.6508444  3
   7037   7036   7039   7040     1  0.0000000  0.6508444  3
   7037   7036   7039   7041     1  0.0000000  0.6508444  3
   7037   7036   7033   7063     1  0.0000000  1.0460000  1
   7037   7036   7033   7063     1  0.0000000  0.0000000  3
   7038   7036   7039   7042     1  0.0000000  0.6508444  3
   7038   7036   7039   7040     1  0.0000000  0.6508444  3
   7038   7036   7039   7041     1  0.0000000  0.6508444  3
   7038   7036   7033   7063     1  0.0000000  1.0460000  1
   7038   7036   7033   7063     1  0.0000000  0.0000000  3
   7039   7042   7043   7044     1  0.0000000  1.2552000  3
   7039   7042   7043   7045     1  0.0000000  1.2552000  3
   7039   7042   7053   7054     1  0.0000000  1.2552000  3
   7039   7042   7053   7055     1  0.0000000  1.2552000  3
   7040   7039   7042   7043     1  0.0000000  1.2552000  3
   7040   7039   7042   7053     1  0.0000000  1.2552000  3
   7041   7039   7042   7043     1  0.0000000  1.2552000  3
   7041   7039   7042   7053     1  0.0000000  1.2552000  3
   7042   7043   7046   7047     1  0.0000000  0.6508444  3
   7042   7043   7046   7048     1  0.0000000  0.6508444  3
   7042   7053   7056   7057     1  0.0000000  0.6508444  3
   7042   7053   7056   7058     1  0.0000000  0.6508444  3
   7043   7042   7053   7054     1  0.0000000  1.2552000  3
   7043   7042   7053   7055     1  0.0000000  1.2552000  3
   7044   7043   7046   7049     1  0.0000000  0.6508444  3
   7044   7043   7046   7047     1  0.0000000  0.6508444  3
   7044   7043   7046   7048     1  0.0000000  0.6508444  3
   7044   7043   7042   7053     1  0.0000000  1.2552000  3
   7045   7043   7046   7049     1  0.0000000  0.6508444  3
   7045   7043   7046   7047     1  0.0000000  0.6508444  3
   7045   7043   7046   7048     1  0.0000000  0.6508444  3
   7045   7043   7042   7053     1  0.0000000  1.2552000  3
   7046   7049   7051   7052     1  180.0000771  9.6232000  2
   7047   7046   7049   7050     1  0.0000000  3.3472000  1
   7047   7046   7049   7050     1  0.0000000  0.0000000  2
   7047   7046   7049   7050     1  180.0000771  0.3347200  3
   7047   7046   7049   7051     1  180.0000771  0.0000000  2
   7048   7046   7049   7050     1  0.0000000  3.3472000  1
   7048   7046   7049   7050     1  0.0000000  0.0000000  2
   7048   7046   7049   7050     1  180.0000771  0.3347200  3
   7048   7046   7049   7051     1  180.0000771  0.0000000  2
   7050   7049   7051   7052     1  0.0000000  7.9496000  1
   7050   7049   7051   7052     1  180.0000771  9.6232000  2
   7054   7053   7056   7059     1  0.0000000  0.6508444  3
   7054   7053   7056   7057     1  0.0000000  0.6508444  3
   7054   7053   7056   7058     1  0.0000000  0.6508444  3
   7055   7053   7056   7059     1  0.0000000  0.6508444  3
   7055   7053   7056   7057     1  0.0000000  0.6508444  3
   7055   7053   7056   7058     1  0.0000000  0.6508444  3
   7056   7059   7061   7062     1  180.0000771  9.6232000  2
   7057   7056   7059   7060     1  0.0000000  3.3472000  1
   7057   7056   7059   7060     1  0.0000000  0.0000000  2
   7057   7056   7059   7060     1  180.0000771  0.3347200  3
   7057   7056   7059   7061     1  180.0000771  0.0000000  2
   7058   7056   7059   7060     1  0.0000000  3.3472000  1
   7058   7056   7059   7060     1  0.0000000  0.0000000  2
   7058   7056   7059   7060     1  180.0000771  0.3347200  3
   7058   7056   7059   7061     1  180.0000771  0.0000000  2
   7060   7059   7061   7062     1  0.0000000  7.9496000  1
   7060   7059   7061   7062     1  180.0000771  9.6232000  2
   7064   7067   7070   7071     1  0.0000000  0.6508444  3
   7064   7067   7070   7072     1  0.0000000  0.6508444  3
   7065   7064   7067   7070     1  0.0000000  0.6508444  3
   7065   7064   7067   7068     1  0.0000000  0.6508444  3
   7065   7064   7067   7069     1  0.0000000  0.6508444  3
   7066   7064   7067   7070     1  0.0000000  0.6508444  3
   7066   7064   7067   7068     1  0.0000000  0.6508444  3
   7066   7064   7067   7069     1  0.0000000  0.6508444  3
   7068   7067   7064   7094     1  0.0000000  1.0460000  1
   7068   7067   7064   7094     1  0.0000000  0.0000000  3
   7068   7067   7070   7073     1  0.0000000  0.6508444  3
   7068   7067   7070   7071     1  0.0000000  0.6508444  3
   7068   7067   7070   7072     1  0.0000000  0.6508444  3
   7069   7067   7064   7094     1  0.0000000  1.0460000  1
   7069   7067   7064   7094     1  0.0000000  0.0000000  3
   7069   7067   7070   7073     1  0.0000000  0.6508444  3
   7069   7067   7070   7071     1  0.0000000  0.6508444  3
   7069   7067   7070   7072     1  0.0000000  0.6508444  3
   7070   7073   7074   7075     1  0.0000000  1.2552000  3
   7070   7073   7074   7076     1  0.0000000  1.2552000  3
   7070   7073   7084   7085     1  0.0000000  1.2552000  3
   7070   7073   7084   7086     1  0.0000000  1.2552000  3
   7071   7070   7073   7074     1  0.0000000  1.2552000  3
   7071   7070   7073   7084     1  0.0000000  1.2552000  3
   7072   7070   7073   7074     1  0.0000000  1.2552000  3
   7072   7070   7073   7084     1  0.0000000  1.2552000  3
   7073   7074   7077   7078     1  0.0000000  0.6508444  3
   7073   7074   7077   7079     1  0.0000000  0.6508444  3
   7073   7084   7087   7088     1  0.0000000  0.6508444  3
   7073   7084   7087   7089     1  0.0000000  0.6508444  3
   7074   7073   7084   7085     1  0.0000000  1.2552000  3
   7074   7073   7084   7086     1  0.0000000  1.2552000  3
   7075   7074   7073   7084     1  0.0000000  1.2552000  3
   7075   7074   7077   7080     1  0.0000000  0.6508444  3
   7075   7074   7077   7078     1  0.0000000  0.6508444  3
   7075   7074   7077   7079     1  0.0000000  0.6508444  3
   7076   7074   7073   7084     1  0.0000000  1.2552000  3
   7076   7074   7077   7080     1  0.0000000  0.6508444  3
   7076   7074   7077   7078     1  0.0000000  0.6508444  3
   7076   7074   7077   7079     1  0.0000000  0.6508444  3
   7077   7080   7082   7083     1  180.0000771  9.6232000  2
   7078   7077   7080   7081     1  0.0000000  3.3472000  1
   7078   7077   7080   7081     1  0.0000000  0.0000000  2
   7078   7077   7080   7081     1  180.0000771  0.3347200  3
   7078   7077   7080   7082     1  180.0000771  0.0000000  2
   7079   7077   7080   7081     1  0.0000000  3.3472000  1
   7079   7077   7080   7081     1  0.0000000  0.0000000  2
   7079   7077   7080   7081     1  180.0000771  0.3347200  3
   7079   7077   7080   7082     1  180.0000771  0.0000000  2
   7081   7080   7082   7083     1  0.0000000  7.9496000  1
   7081   7080   7082   7083     1  180.0000771  9.6232000  2
   7085   7084   7087   7090     1  0.0000000  0.6508444  3
   7085   7084   7087   7088     1  0.0000000  0.6508444  3
   7085   7084   7087   7089     1  0.0000000  0.6508444  3
   7086   7084   7087   7090     1  0.0000000  0.6508444  3
   7086   7084   7087   7088     1  0.0000000  0.6508444  3
   7086   7084   7087   7089     1  0.0000000  0.6508444  3
   7087   7090   7092   7093     1  180.0000771  9.6232000  2
   7088   7087   7090   7091     1  0.0000000  3.3472000  1
   7088   7087   7090   7091     1  0.0000000  0.0000000  2
   7088   7087   7090   7091     1  180.0000771  0.3347200  3
   7088   7087   7090   7092     1  180.0000771  0.0000000  2
   7089   7087   7090   7091     1  0.0000000  3.3472000  1
   7089   7087   7090   7091     1  0.0000000  0.0000000  2
   7089   7087   7090   7091     1  180.0000771  0.3347200  3
   7089   7087   7090   7092     1  180.0000771  0.0000000  2
   7091   7090   7092   7093     1  0.0000000  7.9496000  1
   7091   7090   7092   7093     1  180.0000771  9.6232000  2
   7095   7098   7101   7102     1  0.0000000  0.6508444  3
   7095   7098   7101   7103     1  0.0000000  0.6508444  3
   7096   7095   7098   7101     1  0.0000000  0.6508444  3
   7096   7095   7098   7099     1  0.0000000  0.6508444  3
   7096   7095   7098   7100     1  0.0000000  0.6508444  3
   7097   7095   7098   7101     1  0.0000000  0.6508444  3
   7097   7095   7098   7099     1  0.0000000  0.6508444  3
   7097   7095   7098   7100     1  0.0000000  0.6508444  3
   7099   7098   7101   7104     1  0.0000000  0.6508444  3
   7099   7098   7101   7102     1  0.0000000  0.6508444  3
   7099   7098   7101   7103     1  0.0000000  0.6508444  3
   7099   7098   7095   7125     1  0.0000000  1.0460000  1
   7099   7098   7095   7125     1  0.0000000  0.0000000  3
   7100   7098   7101   7104     1  0.0000000  0.6508444  3
   7100   7098   7101   7102     1  0.0000000  0.6508444  3
   7100   7098   7101   7103     1  0.0000000  0.6508444  3
   7100   7098   7095   7125     1  0.0000000  1.0460000  1
   7100   7098   7095   7125     1  0.0000000  0.0000000  3
   7101   7104   7105   7106     1  0.0000000  1.2552000  3
   7101   7104   7105   7107     1  0.0000000  1.2552000  3
   7101   7104   7115   7116     1  0.0000000  1.2552000  3
   7101   7104   7115   7117     1  0.0000000  1.2552000  3
   7102   7101   7104   7105     1  0.0000000  1.2552000  3
   7102   7101   7104   7115     1  0.0000000  1.2552000  3
   7103   7101   7104   7105     1  0.0000000  1.2552000  3
   7103   7101   7104   7115     1  0.0000000  1.2552000  3
   7104   7105   7108   7109     1  0.0000000  0.6508444  3
   7104   7105   7108   7110     1  0.0000000  0.6508444  3
   7104   7115   7118   7119     1  0.0000000  0.6508444  3
   7104   7115   7118   7120     1  0.0000000  0.6508444  3
   7105   7104   7115   7116     1  0.0000000  1.2552000  3
   7105   7104   7115   7117     1  0.0000000  1.2552000  3
   7106   7105   7108   7111     1  0.0000000  0.6508444  3
   7106   7105   7108   7109     1  0.0000000  0.6508444  3
   7106   7105   7108   7110     1  0.0000000  0.6508444  3
   7106   7105   7104   7115     1  0.0000000  1.2552000  3
   7107   7105   7108   7111     1  0.0000000  0.6508444  3
   7107   7105   7108   7109     1  0.0000000  0.6508444  3
   7107   7105   7108   7110     1  0.0000000  0.6508444  3
   7107   7105   7104   7115     1  0.0000000  1.2552000  3
   7108   7111   7113   7114     1  180.0000771  9.6232000  2
   7109   7108   7111   7112     1  0.0000000  3.3472000  1
   7109   7108   7111   7112     1  0.0000000  0.0000000  2
   7109   7108   7111   7112     1  180.0000771  0.3347200  3
   7109   7108   7111   7113     1  180.0000771  0.0000000  2
   7110   7108   7111   7112     1  0.0000000  3.3472000  1
   7110   7108   7111   7112     1  0.0000000  0.0000000  2
   7110   7108   7111   7112     1  180.0000771  0.3347200  3
   7110   7108   7111   7113     1  180.0000771  0.0000000  2
   7112   7111   7113   7114     1  0.0000000  7.9496000  1
   7112   7111   7113   7114     1  180.0000771  9.6232000  2
   7116   7115   7118   7121     1  0.0000000  0.6508444  3
   7116   7115   7118   7119     1  0.0000000  0.6508444  3
   7116   7115   7118   7120     1  0.0000000  0.6508444  3
   7117   7115   7118   7121     1  0.0000000  0.6508444  3
   7117   7115   7118   7119     1  0.0000000  0.6508444  3
   7117   7115   7118   7120     1  0.0000000  0.6508444  3
   7118   7121   7123   7124     1  180.0000771  9.6232000  2
   7119   7118   7121   7122     1  0.0000000  3.3472000  1
   7119   7118   7121   7122     1  0.0000000  0.0000000  2
   7119   7118   7121   7122     1  180.0000771  0.3347200  3
   7119   7118   7121   7123     1  180.0000771  0.0000000  2
   7120   7118   7121   7122     1  0.0000000  3.3472000  1
   7120   7118   7121   7122     1  0.0000000  0.0000000  2
   7120   7118   7121   7122     1  180.0000771  0.3347200  3
   7120   7118   7121   7123     1  180.0000771  0.0000000  2
   7122   7121   7123   7124     1  0.0000000  7.9496000  1
   7122   7121   7123   7124     1  180.0000771  9.6232000  2
   7126   7129   7132   7133     1  0.0000000  0.6508444  3
   7126   7129   7132   7134     1  0.0000000  0.6508444  3
   7127   7126   7129   7132     1  0.0000000  0.6508444  3
   7127   7126   7129   7130     1  0.0000000  0.6508444  3
   7127   7126   7129   7131     1  0.0000000  0.6508444  3
   7128   7126   7129   7132     1  0.0000000  0.6508444  3
   7128   7126   7129   7130     1  0.0000000  0.6508444  3
   7128   7126   7129   7131     1  0.0000000  0.6508444  3
   7130   7129   7126   7156     1  0.0000000  1.0460000  1
   7130   7129   7126   7156     1  0.0000000  0.0000000  3
   7130   7129   7132   7135     1  0.0000000  0.6508444  3
   7130   7129   7132   7133     1  0.0000000  0.6508444  3
   7130   7129   7132   7134     1  0.0000000  0.6508444  3
   7131   7129   7126   7156     1  0.0000000  1.0460000  1
   7131   7129   7126   7156     1  0.0000000  0.0000000  3
   7131   7129   7132   7135     1  0.0000000  0.6508444  3
   7131   7129   7132   7133     1  0.0000000  0.6508444  3
   7131   7129   7132   7134     1  0.0000000  0.6508444  3
   7132   7135   7136   7137     1  0.0000000  1.2552000  3
   7132   7135   7136   7138     1  0.0000000  1.2552000  3
   7132   7135   7146   7147     1  0.0000000  1.2552000  3
   7132   7135   7146   7148     1  0.0000000  1.2552000  3
   7133   7132   7135   7136     1  0.0000000  1.2552000  3
   7133   7132   7135   7146     1  0.0000000  1.2552000  3
   7134   7132   7135   7136     1  0.0000000  1.2552000  3
   7134   7132   7135   7146     1  0.0000000  1.2552000  3
   7135   7136   7139   7140     1  0.0000000  0.6508444  3
   7135   7136   7139   7141     1  0.0000000  0.6508444  3
   7135   7146   7149   7150     1  0.0000000  0.6508444  3
   7135   7146   7149   7151     1  0.0000000  0.6508444  3
   7136   7135   7146   7147     1  0.0000000  1.2552000  3
   7136   7135   7146   7148     1  0.0000000  1.2552000  3
   7137   7136   7135   7146     1  0.0000000  1.2552000  3
   7137   7136   7139   7142     1  0.0000000  0.6508444  3
   7137   7136   7139   7140     1  0.0000000  0.6508444  3
   7137   7136   7139   7141     1  0.0000000  0.6508444  3
   7138   7136   7135   7146     1  0.0000000  1.2552000  3
   7138   7136   7139   7142     1  0.0000000  0.6508444  3
   7138   7136   7139   7140     1  0.0000000  0.6508444  3
   7138   7136   7139   7141     1  0.0000000  0.6508444  3
   7139   7142   7144   7145     1  180.0000771  9.6232000  2
   7140   7139   7142   7143     1  0.0000000  3.3472000  1
   7140   7139   7142   7143     1  0.0000000  0.0000000  2
   7140   7139   7142   7143     1  180.0000771  0.3347200  3
   7140   7139   7142   7144     1  180.0000771  0.0000000  2
   7141   7139   7142   7143     1  0.0000000  3.3472000  1
   7141   7139   7142   7143     1  0.0000000  0.0000000  2
   7141   7139   7142   7143     1  180.0000771  0.3347200  3
   7141   7139   7142   7144     1  180.0000771  0.0000000  2
   7143   7142   7144   7145     1  0.0000000  7.9496000  1
   7143   7142   7144   7145     1  180.0000771  9.6232000  2
   7147   7146   7149   7152     1  0.0000000  0.6508444  3
   7147   7146   7149   7150     1  0.0000000  0.6508444  3
   7147   7146   7149   7151     1  0.0000000  0.6508444  3
   7148   7146   7149   7152     1  0.0000000  0.6508444  3
   7148   7146   7149   7150     1  0.0000000  0.6508444  3
   7148   7146   7149   7151     1  0.0000000  0.6508444  3
   7149   7152   7154   7155     1  180.0000771  9.6232000  2
   7150   7149   7152   7153     1  0.0000000  3.3472000  1
   7150   7149   7152   7153     1  0.0000000  0.0000000  2
   7150   7149   7152   7153     1  180.0000771  0.3347200  3
   7150   7149   7152   7154     1  180.0000771  0.0000000  2
   7151   7149   7152   7153     1  0.0000000  3.3472000  1
   7151   7149   7152   7153     1  0.0000000  0.0000000  2
   7151   7149   7152   7153     1  180.0000771  0.3347200  3
   7151   7149   7152   7154     1  180.0000771  0.0000000  2
   7153   7152   7154   7155     1  0.0000000  7.9496000  1
   7153   7152   7154   7155     1  180.0000771  9.6232000  2
   7157   7160   7163   7164     1  0.0000000  0.6508444  3
   7157   7160   7163   7165     1  0.0000000  0.6508444  3
   7158   7157   7160   7163     1  0.0000000  0.6508444  3
   7158   7157   7160   7161     1  0.0000000  0.6508444  3
   7158   7157   7160   7162     1  0.0000000  0.6508444  3
   7159   7157   7160   7163     1  0.0000000  0.6508444  3
   7159   7157   7160   7161     1  0.0000000  0.6508444  3
   7159   7157   7160   7162     1  0.0000000  0.6508444  3
   7161   7160   7163   7166     1  0.0000000  0.6508444  3
   7161   7160   7163   7164     1  0.0000000  0.6508444  3
   7161   7160   7163   7165     1  0.0000000  0.6508444  3
   7161   7160   7157   7187     1  0.0000000  1.0460000  1
   7161   7160   7157   7187     1  0.0000000  0.0000000  3
   7162   7160   7163   7166     1  0.0000000  0.6508444  3
   7162   7160   7163   7164     1  0.0000000  0.6508444  3
   7162   7160   7163   7165     1  0.0000000  0.6508444  3
   7162   7160   7157   7187     1  0.0000000  1.0460000  1
   7162   7160   7157   7187     1  0.0000000  0.0000000  3
   7163   7166   7167   7168     1  0.0000000  1.2552000  3
   7163   7166   7167   7169     1  0.0000000  1.2552000  3
   7163   7166   7177   7178     1  0.0000000  1.2552000  3
   7163   7166   7177   7179     1  0.0000000  1.2552000  3
   7164   7163   7166   7167     1  0.0000000  1.2552000  3
   7164   7163   7166   7177     1  0.0000000  1.2552000  3
   7165   7163   7166   7167     1  0.0000000  1.2552000  3
   7165   7163   7166   7177     1  0.0000000  1.2552000  3
   7166   7167   7170   7171     1  0.0000000  0.6508444  3
   7166   7167   7170   7172     1  0.0000000  0.6508444  3
   7166   7177   7180   7181     1  0.0000000  0.6508444  3
   7166   7177   7180   7182     1  0.0000000  0.6508444  3
   7167   7166   7177   7178     1  0.0000000  1.2552000  3
   7167   7166   7177   7179     1  0.0000000  1.2552000  3
   7168   7167   7170   7173     1  0.0000000  0.6508444  3
   7168   7167   7170   7171     1  0.0000000  0.6508444  3
   7168   7167   7170   7172     1  0.0000000  0.6508444  3
   7168   7167   7166   7177     1  0.0000000  1.2552000  3
   7169   7167   7170   7173     1  0.0000000  0.6508444  3
   7169   7167   7170   7171     1  0.0000000  0.6508444  3
   7169   7167   7170   7172     1  0.0000000  0.6508444  3
   7169   7167   7166   7177     1  0.0000000  1.2552000  3
   7170   7173   7175   7176     1  180.0000771  9.6232000  2
   7171   7170   7173   7174     1  0.0000000  3.3472000  1
   7171   7170   7173   7174     1  0.0000000  0.0000000  2
   7171   7170   7173   7174     1  180.0000771  0.3347200  3
   7171   7170   7173   7175     1  180.0000771  0.0000000  2
   7172   7170   7173   7174     1  0.0000000  3.3472000  1
   7172   7170   7173   7174     1  0.0000000  0.0000000  2
   7172   7170   7173   7174     1  180.0000771  0.3347200  3
   7172   7170   7173   7175     1  180.0000771  0.0000000  2
   7174   7173   7175   7176     1  0.0000000  7.9496000  1
   7174   7173   7175   7176     1  180.0000771  9.6232000  2
   7178   7177   7180   7183     1  0.0000000  0.6508444  3
   7178   7177   7180   7181     1  0.0000000  0.6508444  3
   7178   7177   7180   7182     1  0.0000000  0.6508444  3
   7179   7177   7180   7183     1  0.0000000  0.6508444  3
   7179   7177   7180   7181     1  0.0000000  0.6508444  3
   7179   7177   7180   7182     1  0.0000000  0.6508444  3
   7180   7183   7185   7186     1  180.0000771  9.6232000  2
   7181   7180   7183   7184     1  0.0000000  3.3472000  1
   7181   7180   7183   7184     1  0.0000000  0.0000000  2
   7181   7180   7183   7184     1  180.0000771  0.3347200  3
   7181   7180   7183   7185     1  180.0000771  0.0000000  2
   7182   7180   7183   7184     1  0.0000000  3.3472000  1
   7182   7180   7183   7184     1  0.0000000  0.0000000  2
   7182   7180   7183   7184     1  180.0000771  0.3347200  3
   7182   7180   7183   7185     1  180.0000771  0.0000000  2
   7184   7183   7185   7186     1  0.0000000  7.9496000  1
   7184   7183   7185   7186     1  180.0000771  9.6232000  2
   7188   7191   7194   7195     1  0.0000000  0.6508444  3
   7188   7191   7194   7196     1  0.0000000  0.6508444  3
   7189   7188   7191   7194     1  0.0000000  0.6508444  3
   7189   7188   7191   7192     1  0.0000000  0.6508444  3
   7189   7188   7191   7193     1  0.0000000  0.6508444  3
   7190   7188   7191   7194     1  0.0000000  0.6508444  3
   7190   7188   7191   7192     1  0.0000000  0.6508444  3
   7190   7188   7191   7193     1  0.0000000  0.6508444  3
   7192   7191   7188   7218     1  0.0000000  1.0460000  1
   7192   7191   7188   7218     1  0.0000000  0.0000000  3
   7192   7191   7194   7197     1  0.0000000  0.6508444  3
   7192   7191   7194   7195     1  0.0000000  0.6508444  3
   7192   7191   7194   7196     1  0.0000000  0.6508444  3
   7193   7191   7188   7218     1  0.0000000  1.0460000  1
   7193   7191   7188   7218     1  0.0000000  0.0000000  3
   7193   7191   7194   7197     1  0.0000000  0.6508444  3
   7193   7191   7194   7195     1  0.0000000  0.6508444  3
   7193   7191   7194   7196     1  0.0000000  0.6508444  3
   7194   7197   7198   7199     1  0.0000000  1.2552000  3
   7194   7197   7198   7200     1  0.0000000  1.2552000  3
   7194   7197   7208   7209     1  0.0000000  1.2552000  3
   7194   7197   7208   7210     1  0.0000000  1.2552000  3
   7195   7194   7197   7198     1  0.0000000  1.2552000  3
   7195   7194   7197   7208     1  0.0000000  1.2552000  3
   7196   7194   7197   7198     1  0.0000000  1.2552000  3
   7196   7194   7197   7208     1  0.0000000  1.2552000  3
   7197   7198   7201   7202     1  0.0000000  0.6508444  3
   7197   7198   7201   7203     1  0.0000000  0.6508444  3
   7197   7208   7211   7212     1  0.0000000  0.6508444  3
   7197   7208   7211   7213     1  0.0000000  0.6508444  3
   7198   7197   7208   7209     1  0.0000000  1.2552000  3
   7198   7197   7208   7210     1  0.0000000  1.2552000  3
   7199   7198   7197   7208     1  0.0000000  1.2552000  3
   7199   7198   7201   7204     1  0.0000000  0.6508444  3
   7199   7198   7201   7202     1  0.0000000  0.6508444  3
   7199   7198   7201   7203     1  0.0000000  0.6508444  3
   7200   7198   7197   7208     1  0.0000000  1.2552000  3
   7200   7198   7201   7204     1  0.0000000  0.6508444  3
   7200   7198   7201   7202     1  0.0000000  0.6508444  3
   7200   7198   7201   7203     1  0.0000000  0.6508444  3
   7201   7204   7206   7207     1  180.0000771  9.6232000  2
   7202   7201   7204   7205     1  0.0000000  3.3472000  1
   7202   7201   7204   7205     1  0.0000000  0.0000000  2
   7202   7201   7204   7205     1  180.0000771  0.3347200  3
   7202   7201   7204   7206     1  180.0000771  0.0000000  2
   7203   7201   7204   7205     1  0.0000000  3.3472000  1
   7203   7201   7204   7205     1  0.0000000  0.0000000  2
   7203   7201   7204   7205     1  180.0000771  0.3347200  3
   7203   7201   7204   7206     1  180.0000771  0.0000000  2
   7205   7204   7206   7207     1  0.0000000  7.9496000  1
   7205   7204   7206   7207     1  180.0000771  9.6232000  2
   7209   7208   7211   7214     1  0.0000000  0.6508444  3
   7209   7208   7211   7212     1  0.0000000  0.6508444  3
   7209   7208   7211   7213     1  0.0000000  0.6508444  3
   7210   7208   7211   7214     1  0.0000000  0.6508444  3
   7210   7208   7211   7212     1  0.0000000  0.6508444  3
   7210   7208   7211   7213     1  0.0000000  0.6508444  3
   7211   7214   7216   7217     1  180.0000771  9.6232000  2
   7212   7211   7214   7215     1  0.0000000  3.3472000  1
   7212   7211   7214   7215     1  0.0000000  0.0000000  2
   7212   7211   7214   7215     1  180.0000771  0.3347200  3
   7212   7211   7214   7216     1  180.0000771  0.0000000  2
   7213   7211   7214   7215     1  0.0000000  3.3472000  1
   7213   7211   7214   7215     1  0.0000000  0.0000000  2
   7213   7211   7214   7215     1  180.0000771  0.3347200  3
   7213   7211   7214   7216     1  180.0000771  0.0000000  2
   7215   7214   7216   7217     1  0.0000000  7.9496000  1
   7215   7214   7216   7217     1  180.0000771  9.6232000  2
   7219   7222   7225   7226     1  0.0000000  0.6508444  3
   7219   7222   7225   7227     1  0.0000000  0.6508444  3
   7220   7219   7222   7225     1  0.0000000  0.6508444  3
   7220   7219   7222   7223     1  0.0000000  0.6508444  3
   7220   7219   7222   7224     1  0.0000000  0.6508444  3
   7221   7219   7222   7225     1  0.0000000  0.6508444  3
   7221   7219   7222   7223     1  0.0000000  0.6508444  3
   7221   7219   7222   7224     1  0.0000000  0.6508444  3
   7223   7222   7225   7228     1  0.0000000  0.6508444  3
   7223   7222   7225   7226     1  0.0000000  0.6508444  3
   7223   7222   7225   7227     1  0.0000000  0.6508444  3
   7223   7222   7219   7249     1  0.0000000  1.0460000  1
   7223   7222   7219   7249     1  0.0000000  0.0000000  3
   7224   7222   7225   7228     1  0.0000000  0.6508444  3
   7224   7222   7225   7226     1  0.0000000  0.6508444  3
   7224   7222   7225   7227     1  0.0000000  0.6508444  3
   7224   7222   7219   7249     1  0.0000000  1.0460000  1
   7224   7222   7219   7249     1  0.0000000  0.0000000  3
   7225   7228   7229   7230     1  0.0000000  1.2552000  3
   7225   7228   7229   7231     1  0.0000000  1.2552000  3
   7225   7228   7239   7240     1  0.0000000  1.2552000  3
   7225   7228   7239   7241     1  0.0000000  1.2552000  3
   7226   7225   7228   7229     1  0.0000000  1.2552000  3
   7226   7225   7228   7239     1  0.0000000  1.2552000  3
   7227   7225   7228   7229     1  0.0000000  1.2552000  3
   7227   7225   7228   7239     1  0.0000000  1.2552000  3
   7228   7229   7232   7233     1  0.0000000  0.6508444  3
   7228   7229   7232   7234     1  0.0000000  0.6508444  3
   7228   7239   7242   7243     1  0.0000000  0.6508444  3
   7228   7239   7242   7244     1  0.0000000  0.6508444  3
   7229   7228   7239   7240     1  0.0000000  1.2552000  3
   7229   7228   7239   7241     1  0.0000000  1.2552000  3
   7230   7229   7232   7235     1  0.0000000  0.6508444  3
   7230   7229   7232   7233     1  0.0000000  0.6508444  3
   7230   7229   7232   7234     1  0.0000000  0.6508444  3
   7230   7229   7228   7239     1  0.0000000  1.2552000  3
   7231   7229   7232   7235     1  0.0000000  0.6508444  3
   7231   7229   7232   7233     1  0.0000000  0.6508444  3
   7231   7229   7232   7234     1  0.0000000  0.6508444  3
   7231   7229   7228   7239     1  0.0000000  1.2552000  3
   7232   7235   7237   7238     1  180.0000771  9.6232000  2
   7233   7232   7235   7236     1  0.0000000  3.3472000  1
   7233   7232   7235   7236     1  0.0000000  0.0000000  2
   7233   7232   7235   7236     1  180.0000771  0.3347200  3
   7233   7232   7235   7237     1  180.0000771  0.0000000  2
   7234   7232   7235   7236     1  0.0000000  3.3472000  1
   7234   7232   7235   7236     1  0.0000000  0.0000000  2
   7234   7232   7235   7236     1  180.0000771  0.3347200  3
   7234   7232   7235   7237     1  180.0000771  0.0000000  2
   7236   7235   7237   7238     1  0.0000000  7.9496000  1
   7236   7235   7237   7238     1  180.0000771  9.6232000  2
   7240   7239   7242   7245     1  0.0000000  0.6508444  3
   7240   7239   7242   7243     1  0.0000000  0.6508444  3
   7240   7239   7242   7244     1  0.0000000  0.6508444  3
   7241   7239   7242   7245     1  0.0000000  0.6508444  3
   7241   7239   7242   7243     1  0.0000000  0.6508444  3
   7241   7239   7242   7244     1  0.0000000  0.6508444  3
   7242   7245   7247   7248     1  180.0000771  9.6232000  2
   7243   7242   7245   7246     1  0.0000000  3.3472000  1
   7243   7242   7245   7246     1  0.0000000  0.0000000  2
   7243   7242   7245   7246     1  180.0000771  0.3347200  3
   7243   7242   7245   7247     1  180.0000771  0.0000000  2
   7244   7242   7245   7246     1  0.0000000  3.3472000  1
   7244   7242   7245   7246     1  0.0000000  0.0000000  2
   7244   7242   7245   7246     1  180.0000771  0.3347200  3
   7244   7242   7245   7247     1  180.0000771  0.0000000  2
   7246   7245   7247   7248     1  0.0000000  7.9496000  1
   7246   7245   7247   7248     1  180.0000771  9.6232000  2
   7250   7253   7256   7257     1  0.0000000  0.6508444  3
   7250   7253   7256   7258     1  0.0000000  0.6508444  3
   7251   7250   7253   7256     1  0.0000000  0.6508444  3
   7251   7250   7253   7254     1  0.0000000  0.6508444  3
   7251   7250   7253   7255     1  0.0000000  0.6508444  3
   7252   7250   7253   7256     1  0.0000000  0.6508444  3
   7252   7250   7253   7254     1  0.0000000  0.6508444  3
   7252   7250   7253   7255     1  0.0000000  0.6508444  3
   7254   7253   7250   7280     1  0.0000000  1.0460000  1
   7254   7253   7250   7280     1  0.0000000  0.0000000  3
   7254   7253   7256   7259     1  0.0000000  0.6508444  3
   7254   7253   7256   7257     1  0.0000000  0.6508444  3
   7254   7253   7256   7258     1  0.0000000  0.6508444  3
   7255   7253   7250   7280     1  0.0000000  1.0460000  1
   7255   7253   7250   7280     1  0.0000000  0.0000000  3
   7255   7253   7256   7259     1  0.0000000  0.6508444  3
   7255   7253   7256   7257     1  0.0000000  0.6508444  3
   7255   7253   7256   7258     1  0.0000000  0.6508444  3
   7256   7259   7260   7261     1  0.0000000  1.2552000  3
   7256   7259   7260   7262     1  0.0000000  1.2552000  3
   7256   7259   7270   7271     1  0.0000000  1.2552000  3
   7256   7259   7270   7272     1  0.0000000  1.2552000  3
   7257   7256   7259   7260     1  0.0000000  1.2552000  3
   7257   7256   7259   7270     1  0.0000000  1.2552000  3
   7258   7256   7259   7260     1  0.0000000  1.2552000  3
   7258   7256   7259   7270     1  0.0000000  1.2552000  3
   7259   7260   7263   7264     1  0.0000000  0.6508444  3
   7259   7260   7263   7265     1  0.0000000  0.6508444  3
   7259   7270   7273   7274     1  0.0000000  0.6508444  3
   7259   7270   7273   7275     1  0.0000000  0.6508444  3
   7260   7259   7270   7271     1  0.0000000  1.2552000  3
   7260   7259   7270   7272     1  0.0000000  1.2552000  3
   7261   7260   7259   7270     1  0.0000000  1.2552000  3
   7261   7260   7263   7266     1  0.0000000  0.6508444  3
   7261   7260   7263   7264     1  0.0000000  0.6508444  3
   7261   7260   7263   7265     1  0.0000000  0.6508444  3
   7262   7260   7259   7270     1  0.0000000  1.2552000  3
   7262   7260   7263   7266     1  0.0000000  0.6508444  3
   7262   7260   7263   7264     1  0.0000000  0.6508444  3
   7262   7260   7263   7265     1  0.0000000  0.6508444  3
   7263   7266   7268   7269     1  180.0000771  9.6232000  2
   7264   7263   7266   7267     1  0.0000000  3.3472000  1
   7264   7263   7266   7267     1  0.0000000  0.0000000  2
   7264   7263   7266   7267     1  180.0000771  0.3347200  3
   7264   7263   7266   7268     1  180.0000771  0.0000000  2
   7265   7263   7266   7267     1  0.0000000  3.3472000  1
   7265   7263   7266   7267     1  0.0000000  0.0000000  2
   7265   7263   7266   7267     1  180.0000771  0.3347200  3
   7265   7263   7266   7268     1  180.0000771  0.0000000  2
   7267   7266   7268   7269     1  0.0000000  7.9496000  1
   7267   7266   7268   7269     1  180.0000771  9.6232000  2
   7271   7270   7273   7276     1  0.0000000  0.6508444  3
   7271   7270   7273   7274     1  0.0000000  0.6508444  3
   7271   7270   7273   7275     1  0.0000000  0.6508444  3
   7272   7270   7273   7276     1  0.0000000  0.6508444  3
   7272   7270   7273   7274     1  0.0000000  0.6508444  3
   7272   7270   7273   7275     1  0.0000000  0.6508444  3
   7273   7276   7278   7279     1  180.0000771  9.6232000  2
   7274   7273   7276   7277     1  0.0000000  3.3472000  1
   7274   7273   7276   7277     1  0.0000000  0.0000000  2
   7274   7273   7276   7277     1  180.0000771  0.3347200  3
   7274   7273   7276   7278     1  180.0000771  0.0000000  2
   7275   7273   7276   7277     1  0.0000000  3.3472000  1
   7275   7273   7276   7277     1  0.0000000  0.0000000  2
   7275   7273   7276   7277     1  180.0000771  0.3347200  3
   7275   7273   7276   7278     1  180.0000771  0.0000000  2
   7277   7276   7278   7279     1  0.0000000  7.9496000  1
   7277   7276   7278   7279     1  180.0000771  9.6232000  2
   7281   7284   7287   7288     1  0.0000000  0.6508444  3
   7281   7284   7287   7289     1  0.0000000  0.6508444  3
   7282   7281   7284   7287     1  0.0000000  0.6508444  3
   7282   7281   7284   7285     1  0.0000000  0.6508444  3
   7282   7281   7284   7286     1  0.0000000  0.6508444  3
   7283   7281   7284   7287     1  0.0000000  0.6508444  3
   7283   7281   7284   7285     1  0.0000000  0.6508444  3
   7283   7281   7284   7286     1  0.0000000  0.6508444  3
   7285   7284   7287   7290     1  0.0000000  0.6508444  3
   7285   7284   7287   7288     1  0.0000000  0.6508444  3
   7285   7284   7287   7289     1  0.0000000  0.6508444  3
   7285   7284   7281   7311     1  0.0000000  1.0460000  1
   7285   7284   7281   7311     1  0.0000000  0.0000000  3
   7286   7284   7287   7290     1  0.0000000  0.6508444  3
   7286   7284   7287   7288     1  0.0000000  0.6508444  3
   7286   7284   7287   7289     1  0.0000000  0.6508444  3
   7286   7284   7281   7311     1  0.0000000  1.0460000  1
   7286   7284   7281   7311     1  0.0000000  0.0000000  3
   7287   7290   7291   7292     1  0.0000000  1.2552000  3
   7287   7290   7291   7293     1  0.0000000  1.2552000  3
   7287   7290   7301   7302     1  0.0000000  1.2552000  3
   7287   7290   7301   7303     1  0.0000000  1.2552000  3
   7288   7287   7290   7291     1  0.0000000  1.2552000  3
   7288   7287   7290   7301     1  0.0000000  1.2552000  3
   7289   7287   7290   7291     1  0.0000000  1.2552000  3
   7289   7287   7290   7301     1  0.0000000  1.2552000  3
   7290   7291   7294   7295     1  0.0000000  0.6508444  3
   7290   7291   7294   7296     1  0.0000000  0.6508444  3
   7290   7301   7304   7305     1  0.0000000  0.6508444  3
   7290   7301   7304   7306     1  0.0000000  0.6508444  3
   7291   7290   7301   7302     1  0.0000000  1.2552000  3
   7291   7290   7301   7303     1  0.0000000  1.2552000  3
   7292   7291   7294   7297     1  0.0000000  0.6508444  3
   7292   7291   7294   7295     1  0.0000000  0.6508444  3
   7292   7291   7294   7296     1  0.0000000  0.6508444  3
   7292   7291   7290   7301     1  0.0000000  1.2552000  3
   7293   7291   7294   7297     1  0.0000000  0.6508444  3
   7293   7291   7294   7295     1  0.0000000  0.6508444  3
   7293   7291   7294   7296     1  0.0000000  0.6508444  3
   7293   7291   7290   7301     1  0.0000000  1.2552000  3
   7294   7297   7299   7300     1  180.0000771  9.6232000  2
   7295   7294   7297   7298     1  0.0000000  3.3472000  1
   7295   7294   7297   7298     1  0.0000000  0.0000000  2
   7295   7294   7297   7298     1  180.0000771  0.3347200  3
   7295   7294   7297   7299     1  180.0000771  0.0000000  2
   7296   7294   7297   7298     1  0.0000000  3.3472000  1
   7296   7294   7297   7298     1  0.0000000  0.0000000  2
   7296   7294   7297   7298     1  180.0000771  0.3347200  3
   7296   7294   7297   7299     1  180.0000771  0.0000000  2
   7298   7297   7299   7300     1  0.0000000  7.9496000  1
   7298   7297   7299   7300     1  180.0000771  9.6232000  2
   7302   7301   7304   7307     1  0.0000000  0.6508444  3
   7302   7301   7304   7305     1  0.0000000  0.6508444  3
   7302   7301   7304   7306     1  0.0000000  0.6508444  3
   7303   7301   7304   7307     1  0.0000000  0.6508444  3
   7303   7301   7304   7305     1  0.0000000  0.6508444  3
   7303   7301   7304   7306     1  0.0000000  0.6508444  3
   7304   7307   7309   7310     1  180.0000771  9.6232000  2
   7305   7304   7307   7308     1  0.0000000  3.3472000  1
   7305   7304   7307   7308     1  0.0000000  0.0000000  2
   7305   7304   7307   7308     1  180.0000771  0.3347200  3
   7305   7304   7307   7309     1  180.0000771  0.0000000  2
   7306   7304   7307   7308     1  0.0000000  3.3472000  1
   7306   7304   7307   7308     1  0.0000000  0.0000000  2
   7306   7304   7307   7308     1  180.0000771  0.3347200  3
   7306   7304   7307   7309     1  180.0000771  0.0000000  2
   7308   7307   7309   7310     1  0.0000000  7.9496000  1
   7308   7307   7309   7310     1  180.0000771  9.6232000  2
   7312   7315   7318   7319     1  0.0000000  0.6508444  3
   7312   7315   7318   7320     1  0.0000000  0.6508444  3
   7313   7312   7315   7318     1  0.0000000  0.6508444  3
   7313   7312   7315   7316     1  0.0000000  0.6508444  3
   7313   7312   7315   7317     1  0.0000000  0.6508444  3
   7314   7312   7315   7318     1  0.0000000  0.6508444  3
   7314   7312   7315   7316     1  0.0000000  0.6508444  3
   7314   7312   7315   7317     1  0.0000000  0.6508444  3
   7316   7315   7312   7342     1  0.0000000  1.0460000  1
   7316   7315   7312   7342     1  0.0000000  0.0000000  3
   7316   7315   7318   7321     1  0.0000000  0.6508444  3
   7316   7315   7318   7319     1  0.0000000  0.6508444  3
   7316   7315   7318   7320     1  0.0000000  0.6508444  3
   7317   7315   7312   7342     1  0.0000000  1.0460000  1
   7317   7315   7312   7342     1  0.0000000  0.0000000  3
   7317   7315   7318   7321     1  0.0000000  0.6508444  3
   7317   7315   7318   7319     1  0.0000000  0.6508444  3
   7317   7315   7318   7320     1  0.0000000  0.6508444  3
   7318   7321   7322   7323     1  0.0000000  1.2552000  3
   7318   7321   7322   7324     1  0.0000000  1.2552000  3
   7318   7321   7332   7333     1  0.0000000  1.2552000  3
   7318   7321   7332   7334     1  0.0000000  1.2552000  3
   7319   7318   7321   7322     1  0.0000000  1.2552000  3
   7319   7318   7321   7332     1  0.0000000  1.2552000  3
   7320   7318   7321   7322     1  0.0000000  1.2552000  3
   7320   7318   7321   7332     1  0.0000000  1.2552000  3
   7321   7322   7325   7326     1  0.0000000  0.6508444  3
   7321   7322   7325   7327     1  0.0000000  0.6508444  3
   7321   7332   7335   7336     1  0.0000000  0.6508444  3
   7321   7332   7335   7337     1  0.0000000  0.6508444  3
   7322   7321   7332   7333     1  0.0000000  1.2552000  3
   7322   7321   7332   7334     1  0.0000000  1.2552000  3
   7323   7322   7321   7332     1  0.0000000  1.2552000  3
   7323   7322   7325   7328     1  0.0000000  0.6508444  3
   7323   7322   7325   7326     1  0.0000000  0.6508444  3
   7323   7322   7325   7327     1  0.0000000  0.6508444  3
   7324   7322   7321   7332     1  0.0000000  1.2552000  3
   7324   7322   7325   7328     1  0.0000000  0.6508444  3
   7324   7322   7325   7326     1  0.0000000  0.6508444  3
   7324   7322   7325   7327     1  0.0000000  0.6508444  3
   7325   7328   7330   7331     1  180.0000771  9.6232000  2
   7326   7325   7328   7329     1  0.0000000  3.3472000  1
   7326   7325   7328   7329     1  0.0000000  0.0000000  2
   7326   7325   7328   7329     1  180.0000771  0.3347200  3
   7326   7325   7328   7330     1  180.0000771  0.0000000  2
   7327   7325   7328   7329     1  0.0000000  3.3472000  1
   7327   7325   7328   7329     1  0.0000000  0.0000000  2
   7327   7325   7328   7329     1  180.0000771  0.3347200  3
   7327   7325   7328   7330     1  180.0000771  0.0000000  2
   7329   7328   7330   7331     1  0.0000000  7.9496000  1
   7329   7328   7330   7331     1  180.0000771  9.6232000  2
   7333   7332   7335   7338     1  0.0000000  0.6508444  3
   7333   7332   7335   7336     1  0.0000000  0.6508444  3
   7333   7332   7335   7337     1  0.0000000  0.6508444  3
   7334   7332   7335   7338     1  0.0000000  0.6508444  3
   7334   7332   7335   7336     1  0.0000000  0.6508444  3
   7334   7332   7335   7337     1  0.0000000  0.6508444  3
   7335   7338   7340   7341     1  180.0000771  9.6232000  2
   7336   7335   7338   7339     1  0.0000000  3.3472000  1
   7336   7335   7338   7339     1  0.0000000  0.0000000  2
   7336   7335   7338   7339     1  180.0000771  0.3347200  3
   7336   7335   7338   7340     1  180.0000771  0.0000000  2
   7337   7335   7338   7339     1  0.0000000  3.3472000  1
   7337   7335   7338   7339     1  0.0000000  0.0000000  2
   7337   7335   7338   7339     1  180.0000771  0.3347200  3
   7337   7335   7338   7340     1  180.0000771  0.0000000  2
   7339   7338   7340   7341     1  0.0000000  7.9496000  1
   7339   7338   7340   7341     1  180.0000771  9.6232000  2
   7343   7346   7349   7350     1  0.0000000  0.6508444  3
   7343   7346   7349   7351     1  0.0000000  0.6508444  3
   7344   7343   7346   7349     1  0.0000000  0.6508444  3
   7344   7343   7346   7347     1  0.0000000  0.6508444  3
   7344   7343   7346   7348     1  0.0000000  0.6508444  3
   7345   7343   7346   7349     1  0.0000000  0.6508444  3
   7345   7343   7346   7347     1  0.0000000  0.6508444  3
   7345   7343   7346   7348     1  0.0000000  0.6508444  3
   7347   7346   7349   7352     1  0.0000000  0.6508444  3
   7347   7346   7349   7350     1  0.0000000  0.6508444  3
   7347   7346   7349   7351     1  0.0000000  0.6508444  3
   7347   7346   7343   7373     1  0.0000000  1.0460000  1
   7347   7346   7343   7373     1  0.0000000  0.0000000  3
   7348   7346   7349   7352     1  0.0000000  0.6508444  3
   7348   7346   7349   7350     1  0.0000000  0.6508444  3
   7348   7346   7349   7351     1  0.0000000  0.6508444  3
   7348   7346   7343   7373     1  0.0000000  1.0460000  1
   7348   7346   7343   7373     1  0.0000000  0.0000000  3
   7349   7352   7353   7354     1  0.0000000  1.2552000  3
   7349   7352   7353   7355     1  0.0000000  1.2552000  3
   7349   7352   7363   7364     1  0.0000000  1.2552000  3
   7349   7352   7363   7365     1  0.0000000  1.2552000  3
   7350   7349   7352   7353     1  0.0000000  1.2552000  3
   7350   7349   7352   7363     1  0.0000000  1.2552000  3
   7351   7349   7352   7353     1  0.0000000  1.2552000  3
   7351   7349   7352   7363     1  0.0000000  1.2552000  3
   7352   7353   7356   7357     1  0.0000000  0.6508444  3
   7352   7353   7356   7358     1  0.0000000  0.6508444  3
   7352   7363   7366   7367     1  0.0000000  0.6508444  3
   7352   7363   7366   7368     1  0.0000000  0.6508444  3
   7353   7352   7363   7364     1  0.0000000  1.2552000  3
   7353   7352   7363   7365     1  0.0000000  1.2552000  3
   7354   7353   7356   7359     1  0.0000000  0.6508444  3
   7354   7353   7356   7357     1  0.0000000  0.6508444  3
   7354   7353   7356   7358     1  0.0000000  0.6508444  3
   7354   7353   7352   7363     1  0.0000000  1.2552000  3
   7355   7353   7356   7359     1  0.0000000  0.6508444  3
   7355   7353   7356   7357     1  0.0000000  0.6508444  3
   7355   7353   7356   7358     1  0.0000000  0.6508444  3
   7355   7353   7352   7363     1  0.0000000  1.2552000  3
   7356   7359   7361   7362     1  180.0000771  9.6232000  2
   7357   7356   7359   7360     1  0.0000000  3.3472000  1
   7357   7356   7359   7360     1  0.0000000  0.0000000  2
   7357   7356   7359   7360     1  180.0000771  0.3347200  3
   7357   7356   7359   7361     1  180.0000771  0.0000000  2
   7358   7356   7359   7360     1  0.0000000  3.3472000  1
   7358   7356   7359   7360     1  0.0000000  0.0000000  2
   7358   7356   7359   7360     1  180.0000771  0.3347200  3
   7358   7356   7359   7361     1  180.0000771  0.0000000  2
   7360   7359   7361   7362     1  0.0000000  7.9496000  1
   7360   7359   7361   7362     1  180.0000771  9.6232000  2
   7364   7363   7366   7369     1  0.0000000  0.6508444  3
   7364   7363   7366   7367     1  0.0000000  0.6508444  3
   7364   7363   7366   7368     1  0.0000000  0.6508444  3
   7365   7363   7366   7369     1  0.0000000  0.6508444  3
   7365   7363   7366   7367     1  0.0000000  0.6508444  3
   7365   7363   7366   7368     1  0.0000000  0.6508444  3
   7366   7369   7371   7372     1  180.0000771  9.6232000  2
   7367   7366   7369   7370     1  0.0000000  3.3472000  1
   7367   7366   7369   7370     1  0.0000000  0.0000000  2
   7367   7366   7369   7370     1  180.0000771  0.3347200  3
   7367   7366   7369   7371     1  180.0000771  0.0000000  2
   7368   7366   7369   7370     1  0.0000000  3.3472000  1
   7368   7366   7369   7370     1  0.0000000  0.0000000  2
   7368   7366   7369   7370     1  180.0000771  0.3347200  3
   7368   7366   7369   7371     1  180.0000771  0.0000000  2
   7370   7369   7371   7372     1  0.0000000  7.9496000  1
   7370   7369   7371   7372     1  180.0000771  9.6232000  2
   7374   7377   7380   7381     1  0.0000000  0.6508444  3
   7374   7377   7380   7382     1  0.0000000  0.6508444  3
   7375   7374   7377   7380     1  0.0000000  0.6508444  3
   7375   7374   7377   7378     1  0.0000000  0.6508444  3
   7375   7374   7377   7379     1  0.0000000  0.6508444  3
   7376   7374   7377   7380     1  0.0000000  0.6508444  3
   7376   7374   7377   7378     1  0.0000000  0.6508444  3
   7376   7374   7377   7379     1  0.0000000  0.6508444  3
   7378   7377   7374   7404     1  0.0000000  1.0460000  1
   7378   7377   7374   7404     1  0.0000000  0.0000000  3
   7378   7377   7380   7383     1  0.0000000  0.6508444  3
   7378   7377   7380   7381     1  0.0000000  0.6508444  3
   7378   7377   7380   7382     1  0.0000000  0.6508444  3
   7379   7377   7374   7404     1  0.0000000  1.0460000  1
   7379   7377   7374   7404     1  0.0000000  0.0000000  3
   7379   7377   7380   7383     1  0.0000000  0.6508444  3
   7379   7377   7380   7381     1  0.0000000  0.6508444  3
   7379   7377   7380   7382     1  0.0000000  0.6508444  3
   7380   7383   7384   7385     1  0.0000000  1.2552000  3
   7380   7383   7384   7386     1  0.0000000  1.2552000  3
   7380   7383   7394   7395     1  0.0000000  1.2552000  3
   7380   7383   7394   7396     1  0.0000000  1.2552000  3
   7381   7380   7383   7384     1  0.0000000  1.2552000  3
   7381   7380   7383   7394     1  0.0000000  1.2552000  3
   7382   7380   7383   7384     1  0.0000000  1.2552000  3
   7382   7380   7383   7394     1  0.0000000  1.2552000  3
   7383   7384   7387   7388     1  0.0000000  0.6508444  3
   7383   7384   7387   7389     1  0.0000000  0.6508444  3
   7383   7394   7397   7398     1  0.0000000  0.6508444  3
   7383   7394   7397   7399     1  0.0000000  0.6508444  3
   7384   7383   7394   7395     1  0.0000000  1.2552000  3
   7384   7383   7394   7396     1  0.0000000  1.2552000  3
   7385   7384   7383   7394     1  0.0000000  1.2552000  3
   7385   7384   7387   7390     1  0.0000000  0.6508444  3
   7385   7384   7387   7388     1  0.0000000  0.6508444  3
   7385   7384   7387   7389     1  0.0000000  0.6508444  3
   7386   7384   7383   7394     1  0.0000000  1.2552000  3
   7386   7384   7387   7390     1  0.0000000  0.6508444  3
   7386   7384   7387   7388     1  0.0000000  0.6508444  3
   7386   7384   7387   7389     1  0.0000000  0.6508444  3
   7387   7390   7392   7393     1  180.0000771  9.6232000  2
   7388   7387   7390   7391     1  0.0000000  3.3472000  1
   7388   7387   7390   7391     1  0.0000000  0.0000000  2
   7388   7387   7390   7391     1  180.0000771  0.3347200  3
   7388   7387   7390   7392     1  180.0000771  0.0000000  2
   7389   7387   7390   7391     1  0.0000000  3.3472000  1
   7389   7387   7390   7391     1  0.0000000  0.0000000  2
   7389   7387   7390   7391     1  180.0000771  0.3347200  3
   7389   7387   7390   7392     1  180.0000771  0.0000000  2
   7391   7390   7392   7393     1  0.0000000  7.9496000  1
   7391   7390   7392   7393     1  180.0000771  9.6232000  2
   7395   7394   7397   7400     1  0.0000000  0.6508444  3
   7395   7394   7397   7398     1  0.0000000  0.6508444  3
   7395   7394   7397   7399     1  0.0000000  0.6508444  3
   7396   7394   7397   7400     1  0.0000000  0.6508444  3
   7396   7394   7397   7398     1  0.0000000  0.6508444  3
   7396   7394   7397   7399     1  0.0000000  0.6508444  3
   7397   7400   7402   7403     1  180.0000771  9.6232000  2
   7398   7397   7400   7401     1  0.0000000  3.3472000  1
   7398   7397   7400   7401     1  0.0000000  0.0000000  2
   7398   7397   7400   7401     1  180.0000771  0.3347200  3
   7398   7397   7400   7402     1  180.0000771  0.0000000  2
   7399   7397   7400   7401     1  0.0000000  3.3472000  1
   7399   7397   7400   7401     1  0.0000000  0.0000000  2
   7399   7397   7400   7401     1  180.0000771  0.3347200  3
   7399   7397   7400   7402     1  180.0000771  0.0000000  2
   7401   7400   7402   7403     1  0.0000000  7.9496000  1
   7401   7400   7402   7403     1  180.0000771  9.6232000  2
   7405   7408   7411   7412     1  0.0000000  0.6508444  3
   7405   7408   7411   7413     1  0.0000000  0.6508444  3
   7406   7405   7408   7411     1  0.0000000  0.6508444  3
   7406   7405   7408   7409     1  0.0000000  0.6508444  3
   7406   7405   7408   7410     1  0.0000000  0.6508444  3
   7407   7405   7408   7411     1  0.0000000  0.6508444  3
   7407   7405   7408   7409     1  0.0000000  0.6508444  3
   7407   7405   7408   7410     1  0.0000000  0.6508444  3
   7409   7408   7411   7414     1  0.0000000  0.6508444  3
   7409   7408   7411   7412     1  0.0000000  0.6508444  3
   7409   7408   7411   7413     1  0.0000000  0.6508444  3
   7409   7408   7405   7435     1  0.0000000  1.0460000  1
   7409   7408   7405   7435     1  0.0000000  0.0000000  3
   7410   7408   7411   7414     1  0.0000000  0.6508444  3
   7410   7408   7411   7412     1  0.0000000  0.6508444  3
   7410   7408   7411   7413     1  0.0000000  0.6508444  3
   7410   7408   7405   7435     1  0.0000000  1.0460000  1
   7410   7408   7405   7435     1  0.0000000  0.0000000  3
   7411   7414   7415   7416     1  0.0000000  1.2552000  3
   7411   7414   7415   7417     1  0.0000000  1.2552000  3
   7411   7414   7425   7426     1  0.0000000  1.2552000  3
   7411   7414   7425   7427     1  0.0000000  1.2552000  3
   7412   7411   7414   7415     1  0.0000000  1.2552000  3
   7412   7411   7414   7425     1  0.0000000  1.2552000  3
   7413   7411   7414   7415     1  0.0000000  1.2552000  3
   7413   7411   7414   7425     1  0.0000000  1.2552000  3
   7414   7415   7418   7419     1  0.0000000  0.6508444  3
   7414   7415   7418   7420     1  0.0000000  0.6508444  3
   7414   7425   7428   7429     1  0.0000000  0.6508444  3
   7414   7425   7428   7430     1  0.0000000  0.6508444  3
   7415   7414   7425   7426     1  0.0000000  1.2552000  3
   7415   7414   7425   7427     1  0.0000000  1.2552000  3
   7416   7415   7418   7421     1  0.0000000  0.6508444  3
   7416   7415   7418   7419     1  0.0000000  0.6508444  3
   7416   7415   7418   7420     1  0.0000000  0.6508444  3
   7416   7415   7414   7425     1  0.0000000  1.2552000  3
   7417   7415   7418   7421     1  0.0000000  0.6508444  3
   7417   7415   7418   7419     1  0.0000000  0.6508444  3
   7417   7415   7418   7420     1  0.0000000  0.6508444  3
   7417   7415   7414   7425     1  0.0000000  1.2552000  3
   7418   7421   7423   7424     1  180.0000771  9.6232000  2
   7419   7418   7421   7422     1  0.0000000  3.3472000  1
   7419   7418   7421   7422     1  0.0000000  0.0000000  2
   7419   7418   7421   7422     1  180.0000771  0.3347200  3
   7419   7418   7421   7423     1  180.0000771  0.0000000  2
   7420   7418   7421   7422     1  0.0000000  3.3472000  1
   7420   7418   7421   7422     1  0.0000000  0.0000000  2
   7420   7418   7421   7422     1  180.0000771  0.3347200  3
   7420   7418   7421   7423     1  180.0000771  0.0000000  2
   7422   7421   7423   7424     1  0.0000000  7.9496000  1
   7422   7421   7423   7424     1  180.0000771  9.6232000  2
   7426   7425   7428   7431     1  0.0000000  0.6508444  3
   7426   7425   7428   7429     1  0.0000000  0.6508444  3
   7426   7425   7428   7430     1  0.0000000  0.6508444  3
   7427   7425   7428   7431     1  0.0000000  0.6508444  3
   7427   7425   7428   7429     1  0.0000000  0.6508444  3
   7427   7425   7428   7430     1  0.0000000  0.6508444  3
   7428   7431   7433   7434     1  180.0000771  9.6232000  2
   7429   7428   7431   7432     1  0.0000000  3.3472000  1
   7429   7428   7431   7432     1  0.0000000  0.0000000  2
   7429   7428   7431   7432     1  180.0000771  0.3347200  3
   7429   7428   7431   7433     1  180.0000771  0.0000000  2
   7430   7428   7431   7432     1  0.0000000  3.3472000  1
   7430   7428   7431   7432     1  0.0000000  0.0000000  2
   7430   7428   7431   7432     1  180.0000771  0.3347200  3
   7430   7428   7431   7433     1  180.0000771  0.0000000  2
   7432   7431   7433   7434     1  0.0000000  7.9496000  1
   7432   7431   7433   7434     1  180.0000771  9.6232000  2
   7436   7439   7442   7443     1  0.0000000  0.6508444  3
   7436   7439   7442   7444     1  0.0000000  0.6508444  3
   7437   7436   7439   7442     1  0.0000000  0.6508444  3
   7437   7436   7439   7440     1  0.0000000  0.6508444  3
   7437   7436   7439   7441     1  0.0000000  0.6508444  3
   7438   7436   7439   7442     1  0.0000000  0.6508444  3
   7438   7436   7439   7440     1  0.0000000  0.6508444  3
   7438   7436   7439   7441     1  0.0000000  0.6508444  3
   7440   7439   7436   7466     1  0.0000000  1.0460000  1
   7440   7439   7436   7466     1  0.0000000  0.0000000  3
   7440   7439   7442   7445     1  0.0000000  0.6508444  3
   7440   7439   7442   7443     1  0.0000000  0.6508444  3
   7440   7439   7442   7444     1  0.0000000  0.6508444  3
   7441   7439   7436   7466     1  0.0000000  1.0460000  1
   7441   7439   7436   7466     1  0.0000000  0.0000000  3
   7441   7439   7442   7445     1  0.0000000  0.6508444  3
   7441   7439   7442   7443     1  0.0000000  0.6508444  3
   7441   7439   7442   7444     1  0.0000000  0.6508444  3
   7442   7445   7446   7447     1  0.0000000  1.2552000  3
   7442   7445   7446   7448     1  0.0000000  1.2552000  3
   7442   7445   7456   7457     1  0.0000000  1.2552000  3
   7442   7445   7456   7458     1  0.0000000  1.2552000  3
   7443   7442   7445   7446     1  0.0000000  1.2552000  3
   7443   7442   7445   7456     1  0.0000000  1.2552000  3
   7444   7442   7445   7446     1  0.0000000  1.2552000  3
   7444   7442   7445   7456     1  0.0000000  1.2552000  3
   7445   7446   7449   7450     1  0.0000000  0.6508444  3
   7445   7446   7449   7451     1  0.0000000  0.6508444  3
   7445   7456   7459   7460     1  0.0000000  0.6508444  3
   7445   7456   7459   7461     1  0.0000000  0.6508444  3
   7446   7445   7456   7457     1  0.0000000  1.2552000  3
   7446   7445   7456   7458     1  0.0000000  1.2552000  3
   7447   7446   7445   7456     1  0.0000000  1.2552000  3
   7447   7446   7449   7452     1  0.0000000  0.6508444  3
   7447   7446   7449   7450     1  0.0000000  0.6508444  3
   7447   7446   7449   7451     1  0.0000000  0.6508444  3
   7448   7446   7445   7456     1  0.0000000  1.2552000  3
   7448   7446   7449   7452     1  0.0000000  0.6508444  3
   7448   7446   7449   7450     1  0.0000000  0.6508444  3
   7448   7446   7449   7451     1  0.0000000  0.6508444  3
   7449   7452   7454   7455     1  180.0000771  9.6232000  2
   7450   7449   7452   7453     1  0.0000000  3.3472000  1
   7450   7449   7452   7453     1  0.0000000  0.0000000  2
   7450   7449   7452   7453     1  180.0000771  0.3347200  3
   7450   7449   7452   7454     1  180.0000771  0.0000000  2
   7451   7449   7452   7453     1  0.0000000  3.3472000  1
   7451   7449   7452   7453     1  0.0000000  0.0000000  2
   7451   7449   7452   7453     1  180.0000771  0.3347200  3
   7451   7449   7452   7454     1  180.0000771  0.0000000  2
   7453   7452   7454   7455     1  0.0000000  7.9496000  1
   7453   7452   7454   7455     1  180.0000771  9.6232000  2
   7457   7456   7459   7462     1  0.0000000  0.6508444  3
   7457   7456   7459   7460     1  0.0000000  0.6508444  3
   7457   7456   7459   7461     1  0.0000000  0.6508444  3
   7458   7456   7459   7462     1  0.0000000  0.6508444  3
   7458   7456   7459   7460     1  0.0000000  0.6508444  3
   7458   7456   7459   7461     1  0.0000000  0.6508444  3
   7459   7462   7464   7465     1  180.0000771  9.6232000  2
   7460   7459   7462   7463     1  0.0000000  3.3472000  1
   7460   7459   7462   7463     1  0.0000000  0.0000000  2
   7460   7459   7462   7463     1  180.0000771  0.3347200  3
   7460   7459   7462   7464     1  180.0000771  0.0000000  2
   7461   7459   7462   7463     1  0.0000000  3.3472000  1
   7461   7459   7462   7463     1  0.0000000  0.0000000  2
   7461   7459   7462   7463     1  180.0000771  0.3347200  3
   7461   7459   7462   7464     1  180.0000771  0.0000000  2
   7463   7462   7464   7465     1  0.0000000  7.9496000  1
   7463   7462   7464   7465     1  180.0000771  9.6232000  2
   7467   7470   7473   7474     1  0.0000000  0.6508444  3
   7467   7470   7473   7475     1  0.0000000  0.6508444  3
   7468   7467   7470   7473     1  0.0000000  0.6508444  3
   7468   7467   7470   7471     1  0.0000000  0.6508444  3
   7468   7467   7470   7472     1  0.0000000  0.6508444  3
   7469   7467   7470   7473     1  0.0000000  0.6508444  3
   7469   7467   7470   7471     1  0.0000000  0.6508444  3
   7469   7467   7470   7472     1  0.0000000  0.6508444  3
   7471   7470   7473   7476     1  0.0000000  0.6508444  3
   7471   7470   7473   7474     1  0.0000000  0.6508444  3
   7471   7470   7473   7475     1  0.0000000  0.6508444  3
   7471   7470   7467   7497     1  0.0000000  1.0460000  1
   7471   7470   7467   7497     1  0.0000000  0.0000000  3
   7472   7470   7473   7476     1  0.0000000  0.6508444  3
   7472   7470   7473   7474     1  0.0000000  0.6508444  3
   7472   7470   7473   7475     1  0.0000000  0.6508444  3
   7472   7470   7467   7497     1  0.0000000  1.0460000  1
   7472   7470   7467   7497     1  0.0000000  0.0000000  3
   7473   7476   7477   7478     1  0.0000000  1.2552000  3
   7473   7476   7477   7479     1  0.0000000  1.2552000  3
   7473   7476   7487   7488     1  0.0000000  1.2552000  3
   7473   7476   7487   7489     1  0.0000000  1.2552000  3
   7474   7473   7476   7477     1  0.0000000  1.2552000  3
   7474   7473   7476   7487     1  0.0000000  1.2552000  3
   7475   7473   7476   7477     1  0.0000000  1.2552000  3
   7475   7473   7476   7487     1  0.0000000  1.2552000  3
   7476   7477   7480   7481     1  0.0000000  0.6508444  3
   7476   7477   7480   7482     1  0.0000000  0.6508444  3
   7476   7487   7490   7491     1  0.0000000  0.6508444  3
   7476   7487   7490   7492     1  0.0000000  0.6508444  3
   7477   7476   7487   7488     1  0.0000000  1.2552000  3
   7477   7476   7487   7489     1  0.0000000  1.2552000  3
   7478   7477   7480   7483     1  0.0000000  0.6508444  3
   7478   7477   7480   7481     1  0.0000000  0.6508444  3
   7478   7477   7480   7482     1  0.0000000  0.6508444  3
   7478   7477   7476   7487     1  0.0000000  1.2552000  3
   7479   7477   7480   7483     1  0.0000000  0.6508444  3
   7479   7477   7480   7481     1  0.0000000  0.6508444  3
   7479   7477   7480   7482     1  0.0000000  0.6508444  3
   7479   7477   7476   7487     1  0.0000000  1.2552000  3
   7480   7483   7485   7486     1  180.0000771  9.6232000  2
   7481   7480   7483   7484     1  0.0000000  3.3472000  1
   7481   7480   7483   7484     1  0.0000000  0.0000000  2
   7481   7480   7483   7484     1  180.0000771  0.3347200  3
   7481   7480   7483   7485     1  180.0000771  0.0000000  2
   7482   7480   7483   7484     1  0.0000000  3.3472000  1
   7482   7480   7483   7484     1  0.0000000  0.0000000  2
   7482   7480   7483   7484     1  180.0000771  0.3347200  3
   7482   7480   7483   7485     1  180.0000771  0.0000000  2
   7484   7483   7485   7486     1  0.0000000  7.9496000  1
   7484   7483   7485   7486     1  180.0000771  9.6232000  2
   7488   7487   7490   7493     1  0.0000000  0.6508444  3
   7488   7487   7490   7491     1  0.0000000  0.6508444  3
   7488   7487   7490   7492     1  0.0000000  0.6508444  3
   7489   7487   7490   7493     1  0.0000000  0.6508444  3
   7489   7487   7490   7491     1  0.0000000  0.6508444  3
   7489   7487   7490   7492     1  0.0000000  0.6508444  3
   7490   7493   7495   7496     1  180.0000771  9.6232000  2
   7491   7490   7493   7494     1  0.0000000  3.3472000  1
   7491   7490   7493   7494     1  0.0000000  0.0000000  2
   7491   7490   7493   7494     1  180.0000771  0.3347200  3
   7491   7490   7493   7495     1  180.0000771  0.0000000  2
   7492   7490   7493   7494     1  0.0000000  3.3472000  1
   7492   7490   7493   7494     1  0.0000000  0.0000000  2
   7492   7490   7493   7494     1  180.0000771  0.3347200  3
   7492   7490   7493   7495     1  180.0000771  0.0000000  2
   7494   7493   7495   7496     1  0.0000000  7.9496000  1
   7494   7493   7495   7496     1  180.0000771  9.6232000  2
   7498   7501   7504   7505     1  0.0000000  0.6508444  3
   7498   7501   7504   7506     1  0.0000000  0.6508444  3
   7499   7498   7501   7504     1  0.0000000  0.6508444  3
   7499   7498   7501   7502     1  0.0000000  0.6508444  3
   7499   7498   7501   7503     1  0.0000000  0.6508444  3
   7500   7498   7501   7504     1  0.0000000  0.6508444  3
   7500   7498   7501   7502     1  0.0000000  0.6508444  3
   7500   7498   7501   7503     1  0.0000000  0.6508444  3
   7502   7501   7498   7528     1  0.0000000  1.0460000  1
   7502   7501   7498   7528     1  0.0000000  0.0000000  3
   7502   7501   7504   7507     1  0.0000000  0.6508444  3
   7502   7501   7504   7505     1  0.0000000  0.6508444  3
   7502   7501   7504   7506     1  0.0000000  0.6508444  3
   7503   7501   7498   7528     1  0.0000000  1.0460000  1
   7503   7501   7498   7528     1  0.0000000  0.0000000  3
   7503   7501   7504   7507     1  0.0000000  0.6508444  3
   7503   7501   7504   7505     1  0.0000000  0.6508444  3
   7503   7501   7504   7506     1  0.0000000  0.6508444  3
   7504   7507   7508   7509     1  0.0000000  1.2552000  3
   7504   7507   7508   7510     1  0.0000000  1.2552000  3
   7504   7507   7518   7519     1  0.0000000  1.2552000  3
   7504   7507   7518   7520     1  0.0000000  1.2552000  3
   7505   7504   7507   7508     1  0.0000000  1.2552000  3
   7505   7504   7507   7518     1  0.0000000  1.2552000  3
   7506   7504   7507   7508     1  0.0000000  1.2552000  3
   7506   7504   7507   7518     1  0.0000000  1.2552000  3
   7507   7508   7511   7512     1  0.0000000  0.6508444  3
   7507   7508   7511   7513     1  0.0000000  0.6508444  3
   7507   7518   7521   7522     1  0.0000000  0.6508444  3
   7507   7518   7521   7523     1  0.0000000  0.6508444  3
   7508   7507   7518   7519     1  0.0000000  1.2552000  3
   7508   7507   7518   7520     1  0.0000000  1.2552000  3
   7509   7508   7507   7518     1  0.0000000  1.2552000  3
   7509   7508   7511   7514     1  0.0000000  0.6508444  3
   7509   7508   7511   7512     1  0.0000000  0.6508444  3
   7509   7508   7511   7513     1  0.0000000  0.6508444  3
   7510   7508   7507   7518     1  0.0000000  1.2552000  3
   7510   7508   7511   7514     1  0.0000000  0.6508444  3
   7510   7508   7511   7512     1  0.0000000  0.6508444  3
   7510   7508   7511   7513     1  0.0000000  0.6508444  3
   7511   7514   7516   7517     1  180.0000771  9.6232000  2
   7512   7511   7514   7515     1  0.0000000  3.3472000  1
   7512   7511   7514   7515     1  0.0000000  0.0000000  2
   7512   7511   7514   7515     1  180.0000771  0.3347200  3
   7512   7511   7514   7516     1  180.0000771  0.0000000  2
   7513   7511   7514   7515     1  0.0000000  3.3472000  1
   7513   7511   7514   7515     1  0.0000000  0.0000000  2
   7513   7511   7514   7515     1  180.0000771  0.3347200  3
   7513   7511   7514   7516     1  180.0000771  0.0000000  2
   7515   7514   7516   7517     1  0.0000000  7.9496000  1
   7515   7514   7516   7517     1  180.0000771  9.6232000  2
   7519   7518   7521   7524     1  0.0000000  0.6508444  3
   7519   7518   7521   7522     1  0.0000000  0.6508444  3
   7519   7518   7521   7523     1  0.0000000  0.6508444  3
   7520   7518   7521   7524     1  0.0000000  0.6508444  3
   7520   7518   7521   7522     1  0.0000000  0.6508444  3
   7520   7518   7521   7523     1  0.0000000  0.6508444  3
   7521   7524   7526   7527     1  180.0000771  9.6232000  2
   7522   7521   7524   7525     1  0.0000000  3.3472000  1
   7522   7521   7524   7525     1  0.0000000  0.0000000  2
   7522   7521   7524   7525     1  180.0000771  0.3347200  3
   7522   7521   7524   7526     1  180.0000771  0.0000000  2
   7523   7521   7524   7525     1  0.0000000  3.3472000  1
   7523   7521   7524   7525     1  0.0000000  0.0000000  2
   7523   7521   7524   7525     1  180.0000771  0.3347200  3
   7523   7521   7524   7526     1  180.0000771  0.0000000  2
   7525   7524   7526   7527     1  0.0000000  7.9496000  1
   7525   7524   7526   7527     1  180.0000771  9.6232000  2
   7529   7532   7535   7536     1  0.0000000  0.6508444  3
   7529   7532   7535   7537     1  0.0000000  0.6508444  3
   7530   7529   7532   7535     1  0.0000000  0.6508444  3
   7530   7529   7532   7533     1  0.0000000  0.6508444  3
   7530   7529   7532   7534     1  0.0000000  0.6508444  3
   7531   7529   7532   7535     1  0.0000000  0.6508444  3
   7531   7529   7532   7533     1  0.0000000  0.6508444  3
   7531   7529   7532   7534     1  0.0000000  0.6508444  3
   7533   7532   7535   7538     1  0.0000000  0.6508444  3
   7533   7532   7535   7536     1  0.0000000  0.6508444  3
   7533   7532   7535   7537     1  0.0000000  0.6508444  3
   7533   7532   7529   7559     1  0.0000000  1.0460000  1
   7533   7532   7529   7559     1  0.0000000  0.0000000  3
   7534   7532   7535   7538     1  0.0000000  0.6508444  3
   7534   7532   7535   7536     1  0.0000000  0.6508444  3
   7534   7532   7535   7537     1  0.0000000  0.6508444  3
   7534   7532   7529   7559     1  0.0000000  1.0460000  1
   7534   7532   7529   7559     1  0.0000000  0.0000000  3
   7535   7538   7539   7540     1  0.0000000  1.2552000  3
   7535   7538   7539   7541     1  0.0000000  1.2552000  3
   7535   7538   7549   7550     1  0.0000000  1.2552000  3
   7535   7538   7549   7551     1  0.0000000  1.2552000  3
   7536   7535   7538   7539     1  0.0000000  1.2552000  3
   7536   7535   7538   7549     1  0.0000000  1.2552000  3
   7537   7535   7538   7539     1  0.0000000  1.2552000  3
   7537   7535   7538   7549     1  0.0000000  1.2552000  3
   7538   7539   7542   7543     1  0.0000000  0.6508444  3
   7538   7539   7542   7544     1  0.0000000  0.6508444  3
   7538   7549   7552   7553     1  0.0000000  0.6508444  3
   7538   7549   7552   7554     1  0.0000000  0.6508444  3
   7539   7538   7549   7550     1  0.0000000  1.2552000  3
   7539   7538   7549   7551     1  0.0000000  1.2552000  3
   7540   7539   7542   7545     1  0.0000000  0.6508444  3
   7540   7539   7542   7543     1  0.0000000  0.6508444  3
   7540   7539   7542   7544     1  0.0000000  0.6508444  3
   7540   7539   7538   7549     1  0.0000000  1.2552000  3
   7541   7539   7542   7545     1  0.0000000  0.6508444  3
   7541   7539   7542   7543     1  0.0000000  0.6508444  3
   7541   7539   7542   7544     1  0.0000000  0.6508444  3
   7541   7539   7538   7549     1  0.0000000  1.2552000  3
   7542   7545   7547   7548     1  180.0000771  9.6232000  2
   7543   7542   7545   7546     1  0.0000000  3.3472000  1
   7543   7542   7545   7546     1  0.0000000  0.0000000  2
   7543   7542   7545   7546     1  180.0000771  0.3347200  3
   7543   7542   7545   7547     1  180.0000771  0.0000000  2
   7544   7542   7545   7546     1  0.0000000  3.3472000  1
   7544   7542   7545   7546     1  0.0000000  0.0000000  2
   7544   7542   7545   7546     1  180.0000771  0.3347200  3
   7544   7542   7545   7547     1  180.0000771  0.0000000  2
   7546   7545   7547   7548     1  0.0000000  7.9496000  1
   7546   7545   7547   7548     1  180.0000771  9.6232000  2
   7550   7549   7552   7555     1  0.0000000  0.6508444  3
   7550   7549   7552   7553     1  0.0000000  0.6508444  3
   7550   7549   7552   7554     1  0.0000000  0.6508444  3
   7551   7549   7552   7555     1  0.0000000  0.6508444  3
   7551   7549   7552   7553     1  0.0000000  0.6508444  3
   7551   7549   7552   7554     1  0.0000000  0.6508444  3
   7552   7555   7557   7558     1  180.0000771  9.6232000  2
   7553   7552   7555   7556     1  0.0000000  3.3472000  1
   7553   7552   7555   7556     1  0.0000000  0.0000000  2
   7553   7552   7555   7556     1  180.0000771  0.3347200  3
   7553   7552   7555   7557     1  180.0000771  0.0000000  2
   7554   7552   7555   7556     1  0.0000000  3.3472000  1
   7554   7552   7555   7556     1  0.0000000  0.0000000  2
   7554   7552   7555   7556     1  180.0000771  0.3347200  3
   7554   7552   7555   7557     1  180.0000771  0.0000000  2
   7556   7555   7557   7558     1  0.0000000  7.9496000  1
   7556   7555   7557   7558     1  180.0000771  9.6232000  2
   7560   7563   7566   7567     1  0.0000000  0.6508444  3
   7560   7563   7566   7568     1  0.0000000  0.6508444  3
   7561   7560   7563   7566     1  0.0000000  0.6508444  3
   7561   7560   7563   7564     1  0.0000000  0.6508444  3
   7561   7560   7563   7565     1  0.0000000  0.6508444  3
   7562   7560   7563   7566     1  0.0000000  0.6508444  3
   7562   7560   7563   7564     1  0.0000000  0.6508444  3
   7562   7560   7563   7565     1  0.0000000  0.6508444  3
   7564   7563   7560   7590     1  0.0000000  1.0460000  1
   7564   7563   7560   7590     1  0.0000000  0.0000000  3
   7564   7563   7566   7569     1  0.0000000  0.6508444  3
   7564   7563   7566   7567     1  0.0000000  0.6508444  3
   7564   7563   7566   7568     1  0.0000000  0.6508444  3
   7565   7563   7560   7590     1  0.0000000  1.0460000  1
   7565   7563   7560   7590     1  0.0000000  0.0000000  3
   7565   7563   7566   7569     1  0.0000000  0.6508444  3
   7565   7563   7566   7567     1  0.0000000  0.6508444  3
   7565   7563   7566   7568     1  0.0000000  0.6508444  3
   7566   7569   7570   7571     1  0.0000000  1.2552000  3
   7566   7569   7570   7572     1  0.0000000  1.2552000  3
   7566   7569   7580   7581     1  0.0000000  1.2552000  3
   7566   7569   7580   7582     1  0.0000000  1.2552000  3
   7567   7566   7569   7570     1  0.0000000  1.2552000  3
   7567   7566   7569   7580     1  0.0000000  1.2552000  3
   7568   7566   7569   7570     1  0.0000000  1.2552000  3
   7568   7566   7569   7580     1  0.0000000  1.2552000  3
   7569   7570   7573   7574     1  0.0000000  0.6508444  3
   7569   7570   7573   7575     1  0.0000000  0.6508444  3
   7569   7580   7583   7584     1  0.0000000  0.6508444  3
   7569   7580   7583   7585     1  0.0000000  0.6508444  3
   7570   7569   7580   7581     1  0.0000000  1.2552000  3
   7570   7569   7580   7582     1  0.0000000  1.2552000  3
   7571   7570   7569   7580     1  0.0000000  1.2552000  3
   7571   7570   7573   7576     1  0.0000000  0.6508444  3
   7571   7570   7573   7574     1  0.0000000  0.6508444  3
   7571   7570   7573   7575     1  0.0000000  0.6508444  3
   7572   7570   7569   7580     1  0.0000000  1.2552000  3
   7572   7570   7573   7576     1  0.0000000  0.6508444  3
   7572   7570   7573   7574     1  0.0000000  0.6508444  3
   7572   7570   7573   7575     1  0.0000000  0.6508444  3
   7573   7576   7578   7579     1  180.0000771  9.6232000  2
   7574   7573   7576   7577     1  0.0000000  3.3472000  1
   7574   7573   7576   7577     1  0.0000000  0.0000000  2
   7574   7573   7576   7577     1  180.0000771  0.3347200  3
   7574   7573   7576   7578     1  180.0000771  0.0000000  2
   7575   7573   7576   7577     1  0.0000000  3.3472000  1
   7575   7573   7576   7577     1  0.0000000  0.0000000  2
   7575   7573   7576   7577     1  180.0000771  0.3347200  3
   7575   7573   7576   7578     1  180.0000771  0.0000000  2
   7577   7576   7578   7579     1  0.0000000  7.9496000  1
   7577   7576   7578   7579     1  180.0000771  9.6232000  2
   7581   7580   7583   7586     1  0.0000000  0.6508444  3
   7581   7580   7583   7584     1  0.0000000  0.6508444  3
   7581   7580   7583   7585     1  0.0000000  0.6508444  3
   7582   7580   7583   7586     1  0.0000000  0.6508444  3
   7582   7580   7583   7584     1  0.0000000  0.6508444  3
   7582   7580   7583   7585     1  0.0000000  0.6508444  3
   7583   7586   7588   7589     1  180.0000771  9.6232000  2
   7584   7583   7586   7587     1  0.0000000  3.3472000  1
   7584   7583   7586   7587     1  0.0000000  0.0000000  2
   7584   7583   7586   7587     1  180.0000771  0.3347200  3
   7584   7583   7586   7588     1  180.0000771  0.0000000  2
   7585   7583   7586   7587     1  0.0000000  3.3472000  1
   7585   7583   7586   7587     1  0.0000000  0.0000000  2
   7585   7583   7586   7587     1  180.0000771  0.3347200  3
   7585   7583   7586   7588     1  180.0000771  0.0000000  2
   7587   7586   7588   7589     1  0.0000000  7.9496000  1
   7587   7586   7588   7589     1  180.0000771  9.6232000  2
   7591   7594   7597   7598     1  0.0000000  0.6508444  3
   7591   7594   7597   7599     1  0.0000000  0.6508444  3
   7592   7591   7594   7597     1  0.0000000  0.6508444  3
   7592   7591   7594   7595     1  0.0000000  0.6508444  3
   7592   7591   7594   7596     1  0.0000000  0.6508444  3
   7593   7591   7594   7597     1  0.0000000  0.6508444  3
   7593   7591   7594   7595     1  0.0000000  0.6508444  3
   7593   7591   7594   7596     1  0.0000000  0.6508444  3
   7595   7594   7597   7600     1  0.0000000  0.6508444  3
   7595   7594   7597   7598     1  0.0000000  0.6508444  3
   7595   7594   7597   7599     1  0.0000000  0.6508444  3
   7595   7594   7591   7621     1  0.0000000  1.0460000  1
   7595   7594   7591   7621     1  0.0000000  0.0000000  3
   7596   7594   7597   7600     1  0.0000000  0.6508444  3
   7596   7594   7597   7598     1  0.0000000  0.6508444  3
   7596   7594   7597   7599     1  0.0000000  0.6508444  3
   7596   7594   7591   7621     1  0.0000000  1.0460000  1
   7596   7594   7591   7621     1  0.0000000  0.0000000  3
   7597   7600   7601   7602     1  0.0000000  1.2552000  3
   7597   7600   7601   7603     1  0.0000000  1.2552000  3
   7597   7600   7611   7612     1  0.0000000  1.2552000  3
   7597   7600   7611   7613     1  0.0000000  1.2552000  3
   7598   7597   7600   7601     1  0.0000000  1.2552000  3
   7598   7597   7600   7611     1  0.0000000  1.2552000  3
   7599   7597   7600   7601     1  0.0000000  1.2552000  3
   7599   7597   7600   7611     1  0.0000000  1.2552000  3
   7600   7601   7604   7605     1  0.0000000  0.6508444  3
   7600   7601   7604   7606     1  0.0000000  0.6508444  3
   7600   7611   7614   7615     1  0.0000000  0.6508444  3
   7600   7611   7614   7616     1  0.0000000  0.6508444  3
   7601   7600   7611   7612     1  0.0000000  1.2552000  3
   7601   7600   7611   7613     1  0.0000000  1.2552000  3
   7602   7601   7604   7607     1  0.0000000  0.6508444  3
   7602   7601   7604   7605     1  0.0000000  0.6508444  3
   7602   7601   7604   7606     1  0.0000000  0.6508444  3
   7602   7601   7600   7611     1  0.0000000  1.2552000  3
   7603   7601   7604   7607     1  0.0000000  0.6508444  3
   7603   7601   7604   7605     1  0.0000000  0.6508444  3
   7603   7601   7604   7606     1  0.0000000  0.6508444  3
   7603   7601   7600   7611     1  0.0000000  1.2552000  3
   7604   7607   7609   7610     1  180.0000771  9.6232000  2
   7605   7604   7607   7608     1  0.0000000  3.3472000  1
   7605   7604   7607   7608     1  0.0000000  0.0000000  2
   7605   7604   7607   7608     1  180.0000771  0.3347200  3
   7605   7604   7607   7609     1  180.0000771  0.0000000  2
   7606   7604   7607   7608     1  0.0000000  3.3472000  1
   7606   7604   7607   7608     1  0.0000000  0.0000000  2
   7606   7604   7607   7608     1  180.0000771  0.3347200  3
   7606   7604   7607   7609     1  180.0000771  0.0000000  2
   7608   7607   7609   7610     1  0.0000000  7.9496000  1
   7608   7607   7609   7610     1  180.0000771  9.6232000  2
   7612   7611   7614   7617     1  0.0000000  0.6508444  3
   7612   7611   7614   7615     1  0.0000000  0.6508444  3
   7612   7611   7614   7616     1  0.0000000  0.6508444  3
   7613   7611   7614   7617     1  0.0000000  0.6508444  3
   7613   7611   7614   7615     1  0.0000000  0.6508444  3
   7613   7611   7614   7616     1  0.0000000  0.6508444  3
   7614   7617   7619   7620     1  180.0000771  9.6232000  2
   7615   7614   7617   7618     1  0.0000000  3.3472000  1
   7615   7614   7617   7618     1  0.0000000  0.0000000  2
   7615   7614   7617   7618     1  180.0000771  0.3347200  3
   7615   7614   7617   7619     1  180.0000771  0.0000000  2
   7616   7614   7617   7618     1  0.0000000  3.3472000  1
   7616   7614   7617   7618     1  0.0000000  0.0000000  2
   7616   7614   7617   7618     1  180.0000771  0.3347200  3
   7616   7614   7617   7619     1  180.0000771  0.0000000  2
   7618   7617   7619   7620     1  0.0000000  7.9496000  1
   7618   7617   7619   7620     1  180.0000771  9.6232000  2

;[ system ]
;; Name
;Generic title
;
;[ molecules ]
;; Compound       #mols
;system1              1
